Seed: 1737558899 Mapper polar Network resnet Mesh 4*4 Batch 64
compute_die_area: 3.643e+07
IO_die_area: 6.1e+06
os_area: 1.701e+08
cost_compute: 7.214
cost_IO: 0
cost_os_overall: 0.8505
cost_soc: 7.214
INPUT_PARAMETERS: 0  2   4   4   4  16 100  1   1   1   8    32768  16 1024  512    65536
The network has 72layers.
Batch num is 64
border is (0,1,5,6,9,10,13,15,17,18,20,22,24,26,28,30,32,34,35,37,38,40,42,44,46,48,50,52,54,57,59,60,63,66,70)
batch[0] is 64
batch[1] is 1
batch[2] is 2
batch[3] is 2
batch[4] is 2
batch[5] is 1
batch[6] is 1
batch[7] is 64
batch[8] is 1
batch[9] is 1
batch[10] is 1
batch[11] is 64
batch[12] is 1
batch[13] is 1
batch[14] is 1
batch[15] is 1
batch[16] is 16
batch[17] is 8
batch[18] is 64
batch[19] is 1
batch[20] is 1
batch[21] is 16
batch[22] is 8
batch[23] is 1
batch[24] is 1
batch[25] is 16
batch[26] is 8
batch[27] is 1
batch[28] is 1
batch[29] is 16
batch[30] is 8
batch[31] is 1
batch[32] is 1
batch[33] is 16
batch[34] is 1
batch[35] is 4
batch[36] is 1
batch[37] is 1
batch[38] is 16
batch[39] is 1
batch[40] is 1
batch[41] is 64
batch[42] is 1
batch[43] is 1
batch[44] is 1
batch[45] is 64
batch[46] is 1
batch[47] is 1
batch[48] is 1
batch[49] is 64
batch[50] is 1
batch[51] is 1
batch[52] is 1
batch[53] is 64
batch[54] is 1
batch[55] is 1
batch[56] is 1
batch[57] is 1
batch[58] is 8
batch[59] is 4
batch[60] is 2
batch[61] is 1
batch[62] is 64
batch[63] is 1
batch[64] is 1
batch[65] is 1
batch[66] is 1
batch[67] is 8
batch[68] is 4
batch[69] is 1
batch[70] is 1
batch[71] is 64
border is (0,1,5,6,9,10,13,15,17,18,20,22,24,26,28,30,32,34,35,37,38,40,42,44,46,48,50,52,54,57,59,60,63,66,70)
batch[0] is 64
batch[1] is 1
batch[2] is 1
batch[3] is 1
batch[4] is 1
batch[5] is 1
batch[6] is 1
batch[7] is 1
batch[8] is 1
batch[9] is 1
batch[10] is 1
batch[11] is 1
batch[12] is 1
batch[13] is 1
batch[14] is 1
batch[15] is 1
batch[16] is 8
batch[17] is 8
batch[18] is 64
batch[19] is 1
batch[20] is 1
batch[21] is 8
batch[22] is 8
batch[23] is 1
batch[24] is 1
batch[25] is 8
batch[26] is 8
batch[27] is 1
batch[28] is 1
batch[29] is 8
batch[30] is 8
batch[31] is 1
batch[32] is 1
batch[33] is 1
batch[34] is 1
batch[35] is 4
batch[36] is 1
batch[37] is 1
batch[38] is 16
batch[39] is 1
batch[40] is 1
batch[41] is 1
batch[42] is 1
batch[43] is 1
batch[44] is 1
batch[45] is 1
batch[46] is 1
batch[47] is 1
batch[48] is 1
batch[49] is 1
batch[50] is 1
batch[51] is 1
batch[52] is 1
batch[53] is 1
batch[54] is 1
batch[55] is 1
batch[56] is 1
batch[57] is 1
batch[58] is 4
batch[59] is 4
batch[60] is 2
batch[61] is 1
batch[62] is 1
batch[63] is 1
batch[64] is 1
batch[65] is 1
batch[66] is 1
batch[67] is 1
batch[68] is 1
batch[69] is 1
batch[70] is 1
batch[71] is 64
DP search process time : 0


Cost (before SPM search): 
E:2.736e+11, T:61159226, Cost:1.673e+19

Schtree (before SPM search): 
Cost (before SPM search): E:2.736e+11, T:61159226, Cost:1.673e+19
schtree (before SPM search):
	T 64/1 0 E:2.736e+11, T:61159226, Cost:1.673e+19 Ubuf/Buf/Bus/Mac:4.023e+09/5.277e+10/0/4.746e+09 NoC energy = 5.536e+10 NoP energy = 0 DRAM energy = 1.567e+11  NoC(NoC_tot_hops= 8650429376 NoP_tot_hops= 0,core_hops=1307555200, DRAM acc=1865555648) NoCtime = 58298614 NocBW = 16 DDR_access 0 1 2 3 =0,0,0,0,
		S 64/1 0 E:9.091e+09, T:1906982, Cost:1.734e+16 Ubuf/Buf/Bus/Mac:6.293e+07/2.301e+09/0/1.36e+08 NoC energy = 1.465e+09 NoP energy = 0 DRAM energy = 5.126e+09  NoC(NoC_tot_hops= 228953088 NoP_tot_hops= 0,core_hops=0, DRAM acc=61023424) NoCtime = 1906982 NocBW = 16 DDR_access 0 1 2 3 =0,0,0,0,
			conv1 64 (B:16,W:1,H:1,K:1) 0 util:37.5/37.5 E:9.091e+09, T:1906982, Cost:1.734e+16 Ubuf/Buf/Bus/Mac:6.293e+07/2.301e+09/0/1.36e+08 NoC energy = 1.465e+09 DRAM energy = 5.126e+09  NoC(NoC_tot_hops= 228953088 NoP_tot_hops= 0,core_hops=0, DRAM acc=61023424) 9633792/9408/51380224 NoCtime = 1906982 NocBW = 16 Computing_time = 1229312DDR_access 0 1 2 3 =0,0,0,0,
			NoC info:(4,2) -> (4,1)	6422528 (4,1) -> (4,2)	6422528 (3,3) -> (4,3)	6422528 (3,2) -> (4,2)	6422528 
		S 64/64 0 E:6.982e+09, T:2007040, Cost:1.401e+16 Ubuf/Buf/Bus/Mac:3.555e+07/0/0/1.009e+07 NoC energy = 1.541e+09 NoP energy = 0 DRAM energy = 5.395e+09  NoC(NoC_tot_hops= 240844800 NoP_tot_hops= 0,core_hops=0, DRAM acc=64225280) NoCtime = 2007040 NocBW = 16 DDR_access 0 1 2 3 =0,0,0,0,
			pool1 1 (K:16,W:1,H:1,B:1) 0 util:100/100 E:1.091e+08, T:31360, Cost:3.421e+12 Ubuf/Buf/Bus/Mac:5.555e+05/0/0/1.577e+05 NoC energy = 2.408e+07 DRAM energy = 8.43e+07  NoC(NoC_tot_hops= 3763200 NoP_tot_hops= 0,core_hops=0, DRAM acc=1003520) 802816/0/200704 NoCtime = 31360 NocBW = 16 Computing_time = 1764DDR_access 0 1 2 3 =0,0,0,0,
			NoC info:(4,3) -> (3,3)	6422528 (4,2) -> (3,2)	6422528 (4,1) -> (3,1)	6422528 (4,0) -> (3,0)	6422528 
		S 64/64 0 E:1.767e+10, T:4016384, Cost:7.096e+16 Ubuf/Buf/Bus/Mac:2.096e+08/2.829e+09/0/2.664e+08 NoC energy = 3.567e+09 NoP energy = 0 DRAM energy = 1.08e+10  NoC(NoC_tot_hops= 557384704 NoP_tot_hops= 0,core_hops=68583424, DRAM acc=128524288) NoCtime = 4016384 NocBW = 16 DDR_access 0 1 2 3 =0,0,0,0,
			conv_2_0_a 1 (W:1,H:1,B:1,K:1) 0 util:100/100 E:2.522e+07, T:12544, Cost:3.163e+11 Ubuf/Buf/Bus/Mac:4.368e+05/2.547e+06/0/2.312e+05 NoC energy = 5.14e+06 DRAM energy = 1.686e+07  NoC(NoC_tot_hops= 803072 NoP_tot_hops= 0,core_hops=0, DRAM acc=200768) 200704/4096/200704 NoCtime = 9411 NocBW = 16 Computing_time = 12544DDR_access 0 1 2 3 =0,0,0,0,
			conv_2_0_b 1 (W:7,H:1,B:1,K:1) 0 util:100/100 E:2.76e+07, T:16128, Cost:4.451e+11 Ubuf/Buf/Bus/Mac:5.955e+05/2.128e+07/0/2.081e+06 NoC energy = 3.593e+06 DRAM energy = 4.838e+04  NoC(NoC_tot_hops= 561424 NoP_tot_hops= 0,core_hops=555520, DRAM acc=576) 200704/36864/200704 NoCtime = 12997 NocBW = 16 Computing_time = 16128DDR_access 0 1 2 3 =0,0,0,0,
			conv_2_0_c 1 (W:4,H:1,B:1,K:1) 0 util:100/100 E:1.01e+08, T:25096, Cost:2.534e+12 Ubuf/Buf/Bus/Mac:1.121e+06/1.019e+07/0/9.248e+05 NoC energy = 2.13e+07 DRAM energy = 6.746e+07  NoC(NoC_tot_hops= 3328000 NoP_tot_hops= 0,core_hops=516096, DRAM acc=803072) 200704/16384/802816 NoCtime = 25096 NocBW = 16 Computing_time = 12544DDR_access 0 1 2 3 =0,0,0,0,
			conv_2_br 1 (H:2,W:2,B:1,K:1) 0 util:100/100 E:1.223e+08, T:31368, Cost:3.835e+12 Ubuf/Buf/Bus/Mac:1.121e+06/1.019e+07/0/9.248e+05 NoC energy = 2.571e+07 DRAM energy = 8.432e+07  NoC(NoC_tot_hops= 4016640 NoP_tot_hops= 0,core_hops=0, DRAM acc=1003776) 200704/16384/802816 NoCtime = 31368 NocBW = 16 Computing_time = 12544DDR_access 0 1 2 3 =0,0,0,0,
			NoC info:(4,2) -> (4,1)	25690112 (3,3) -> (4,3)	25690112 (3,2) -> (4,2)	25690112 (0,3) -> (-1,3)	25690112 
		S 64/64 0 E:1.674e+10, T:4816896, Cost:8.064e+16 Ubuf/Buf/Bus/Mac:8.449e+07/0/0/8.971e+06 NoC energy = 3.699e+09 NoP energy = 0 DRAM energy = 1.295e+10  NoC(NoC_tot_hops= 578027520 NoP_tot_hops= 0,core_hops=0, DRAM acc=154140672) NoCtime = 4816896 NocBW = 16 DDR_access 0 1 2 3 =0,0,0,0,
			conv_2_0_res 1 (K:4,H:2,W:2,B:1) 0 util:100/100 E:2.616e+08, T:75264, Cost:1.969e+13 Ubuf/Buf/Bus/Mac:1.32e+06/0/0/1.402e+05 NoC energy = 5.78e+07 DRAM energy = 2.023e+08  NoC(NoC_tot_hops= 9031680 NoP_tot_hops= 0,core_hops=0, DRAM acc=2408448) 1605632/0/802816 NoCtime = 75264 NocBW = 16 Computing_time = 1568DDR_access 0 1 2 3 =0,0,0,0,
			NoC info:(4,3) -> (3,3)	12845056 (4,2) -> (3,2)	12845056 (4,1) -> (3,1)	12845056 (4,0) -> (3,0)	12845056 
		S 64/64 0 E:1.47e+10, T:3213440, Cost:4.724e+16 Ubuf/Buf/Bus/Mac:1.824e+08/2.678e+09/0/2.516e+08 NoC energy = 2.95e+09 NoP energy = 0 DRAM energy = 8.638e+09  NoC(NoC_tot_hops= 460939264 NoP_tot_hops= 0,core_hops=49201152, DRAM acc=102830080) NoCtime = 3213440 NocBW = 16 DDR_access 0 1 2 3 =0,0,0,0,
			conv_2_1_a 1 (H:2,W:2,B:1,K:1) 0 util:100/100 E:1e+08, T:25096, Cost:2.51e+12 Ubuf/Buf/Bus/Mac:1.121e+06/9.933e+06/0/9.248e+05 NoC energy = 2.057e+07 DRAM energy = 6.746e+07  NoC(NoC_tot_hops= 3213824 NoP_tot_hops= 0,core_hops=0, DRAM acc=803072) 802816/16384/200704 NoCtime = 25096 NocBW = 16 Computing_time = 12544DDR_access 0 1 2 3 =0,0,0,0,
			conv_2_1_b 1 (W:2,H:4,B:1,K:1) 0 util:100/100 E:2.708e+07, T:14112, Cost:3.822e+11 Ubuf/Buf/Bus/Mac:6.074e+05/2.132e+07/0/2.081e+06 NoC energy = 3.03e+06 DRAM energy = 4.838e+04  NoC(NoC_tot_hops= 473472 NoP_tot_hops= 0,core_hops=467712, DRAM acc=576) 200704/36864/200704 NoCtime = 3721 NocBW = 16 Computing_time = 14112DDR_access 0 1 2 3 =0,0,0,0,
			conv_2_1_c 1 (H:4,W:1,B:1,K:1) 0 util:100/100 E:1.026e+08, T:25096, Cost:2.574e+12 Ubuf/Buf/Bus/Mac:1.121e+06/1.059e+07/0/9.248e+05 NoC energy = 2.25e+07 DRAM energy = 6.746e+07  NoC(NoC_tot_hops= 3514880 NoP_tot_hops= 0,core_hops=301056, DRAM acc=803072) 200704/16384/802816 NoCtime = 25096 NocBW = 16 Computing_time = 12544DDR_access 0 1 2 3 =0,0,0,0,
			NoC info:(3,3) -> (4,3)	25690112 (0,3) -> (-1,3)	25690112 (2,3) -> (3,3)	20881920 (1,3) -> (0,3)	20881920 
		S 64/64 0 E:1.674e+10, T:4816896, Cost:8.064e+16 Ubuf/Buf/Bus/Mac:8.449e+07/0/0/8.971e+06 NoC energy = 3.699e+09 NoP energy = 0 DRAM energy = 1.295e+10  NoC(NoC_tot_hops= 578027520 NoP_tot_hops= 0,core_hops=0, DRAM acc=154140672) NoCtime = 4816896 NocBW = 16 DDR_access 0 1 2 3 =0,0,0,0,
			conv_2_1_res 1 (K:4,H:2,W:2,B:1) 0 util:100/100 E:2.616e+08, T:75264, Cost:1.969e+13 Ubuf/Buf/Bus/Mac:1.32e+06/0/0/1.402e+05 NoC energy = 5.78e+07 DRAM energy = 2.023e+08  NoC(NoC_tot_hops= 9031680 NoP_tot_hops= 0,core_hops=0, DRAM acc=2408448) 1605632/0/802816 NoCtime = 75264 NocBW = 16 Computing_time = 1568DDR_access 0 1 2 3 =0,0,0,0,
			NoC info:(4,3) -> (3,3)	12845056 (4,2) -> (3,2)	12845056 (4,1) -> (3,1)	12845056 (4,0) -> (3,0)	12845056 
		S 64/64 0 E:1.47e+10, T:3213440, Cost:4.724e+16 Ubuf/Buf/Bus/Mac:1.824e+08/2.678e+09/0/2.516e+08 NoC energy = 2.95e+09 NoP energy = 0 DRAM energy = 8.638e+09  NoC(NoC_tot_hops= 460939264 NoP_tot_hops= 0,core_hops=49201152, DRAM acc=102830080) NoCtime = 3213440 NocBW = 16 DDR_access 0 1 2 3 =0,0,0,0,
			conv_2_2_a 1 (H:2,W:2,B:1,K:1) 0 util:100/100 E:1e+08, T:25096, Cost:2.51e+12 Ubuf/Buf/Bus/Mac:1.121e+06/9.933e+06/0/9.248e+05 NoC energy = 2.057e+07 DRAM energy = 6.746e+07  NoC(NoC_tot_hops= 3213824 NoP_tot_hops= 0,core_hops=0, DRAM acc=803072) 802816/16384/200704 NoCtime = 25096 NocBW = 16 Computing_time = 12544DDR_access 0 1 2 3 =0,0,0,0,
			conv_2_2_b 1 (W:2,H:4,B:1,K:1) 0 util:100/100 E:2.708e+07, T:14112, Cost:3.822e+11 Ubuf/Buf/Bus/Mac:6.074e+05/2.132e+07/0/2.081e+06 NoC energy = 3.03e+06 DRAM energy = 4.838e+04  NoC(NoC_tot_hops= 473472 NoP_tot_hops= 0,core_hops=467712, DRAM acc=576) 200704/36864/200704 NoCtime = 3721 NocBW = 16 Computing_time = 14112DDR_access 0 1 2 3 =0,0,0,0,
			conv_2_2_c 1 (H:4,W:1,B:1,K:1) 0 util:100/100 E:1.026e+08, T:25096, Cost:2.574e+12 Ubuf/Buf/Bus/Mac:1.121e+06/1.059e+07/0/9.248e+05 NoC energy = 2.25e+07 DRAM energy = 6.746e+07  NoC(NoC_tot_hops= 3514880 NoP_tot_hops= 0,core_hops=301056, DRAM acc=803072) 200704/16384/802816 NoCtime = 25096 NocBW = 16 Computing_time = 12544DDR_access 0 1 2 3 =0,0,0,0,
			NoC info:(3,3) -> (4,3)	25690112 (0,3) -> (-1,3)	25690112 (2,3) -> (3,3)	20881920 (1,3) -> (0,3)	20881920 
		S 64/64 0 E:1.859e+10, T:5018624, Cost:9.332e+16 Ubuf/Buf/Bus/Mac:1.329e+08/3.406e+08/0/3.857e+07 NoC energy = 4.592e+09 NoP energy = 0 DRAM energy = 1.349e+10  NoC(NoC_tot_hops= 717488128 NoP_tot_hops= 0,core_hops=115015680, DRAM acc=160595968) NoCtime = 5018624 NocBW = 16 DDR_access 0 1 2 3 =0,0,0,0,
			conv_2_2_res 1 (K:2,H:2,W:2,B:1) 0 util:100/100 E:2.616e+08, T:75264, Cost:1.969e+13 Ubuf/Buf/Bus/Mac:1.32e+06/0/0/1.402e+05 NoC energy = 5.78e+07 DRAM energy = 2.023e+08  NoC(NoC_tot_hops= 9031680 NoP_tot_hops= 0,core_hops=0, DRAM acc=2408448) 1605632/0/802816 NoCtime = 75264 NocBW = 16 Computing_time = 3136DDR_access 0 1 2 3 =0,0,0,0,
			conv_3_0_a 1 (W:2,H:4,B:1,K:1) 0 util:100/100 E:2.896e+07, T:3152, Cost:9.128e+10 Ubuf/Buf/Bus/Mac:7.559e+05/5.322e+06/0/4.624e+05 NoC energy = 1.395e+07 DRAM energy = 8.473e+06  NoC(NoC_tot_hops= 2179072 NoP_tot_hops= 0,core_hops=1797120, DRAM acc=100864) 774400/32768/100352 NoCtime = 11248 NocBW = 16 Computing_time = 3136DDR_access 0 1 2 3 =0,0,0,0,
			NoC info:(3,1) -> (2,1)	15724544 (3,0) -> (2,0)	15724544 (2,1) -> (3,1)	15724544 (2,0) -> (3,0)	15724544 
		S 64/8 0 E:6.712e+09, T:1153536, Cost:7.743e+15 Ubuf/Buf/Bus/Mac:6.299e+07/2.279e+09/0/2.204e+08 NoC energy = 1.049e+09 NoP energy = 0 DRAM energy = 3.101e+09  NoC(NoC_tot_hops= 163930112 NoP_tot_hops= 0,core_hops=20807680, DRAM acc=36913152) NoCtime = 1153536 NocBW = 16 DDR_access 0 1 2 3 =0,0,0,0,
			conv_3_0_b 8 (W:11,H:1,B:1,K:1) 0 util:100/100 E:3.742e+08, T:96768, Cost:3.622e+13 Ubuf/Buf/Bus/Mac:3.175e+06/2.003e+08/0/1.962e+07 NoC energy = 3.395e+07 DRAM energy = 1.172e+08  NoC(NoC_tot_hops= 5305344 NoP_tot_hops= 0,core_hops=0, DRAM acc=1394688) 802816/147456/802816 NoCtime = 43584 NocBW = 16 Computing_time = 96768DDR_access 0 1 2 3 =0,0,0,0,
			conv_3_0_c 8 (H:5,W:1,B:1,K:1) 0 util:100/100 E:4.648e+08, T:100608, Cost:4.676e+13 Ubuf/Buf/Bus/Mac:4.699e+06/8.453e+07/0/7.927e+06 NoC energy = 9.719e+07 DRAM energy = 2.704e+08  NoC(NoC_tot_hops= 15185920 NoP_tot_hops= 0,core_hops=2600960, DRAM acc=3219456) 802816/65536/3211264 NoCtime = 100608 NocBW = 16 Computing_time = 86016DDR_access 0 1 2 3 =0,0,0,0,
			NoC info:(3,3) -> (4,3)	10092544 (0,3) -> (-1,3)	10092544 (2,3) -> (3,3)	8112128 (1,3) -> (0,3)	7710720 
		S 64/1 0 E:8.386e+09, T:1933312, Cost:1.621e+16 Ubuf/Buf/Bus/Mac:6.769e+07/1.491e+09/0/1.353e+08 NoC energy = 1.495e+09 NoP energy = 0 DRAM energy = 5.197e+09  NoC(NoC_tot_hops= 233603072 NoP_tot_hops= 0,core_hops=0, DRAM acc=61865984) NoCtime = 1933312 NocBW = 16 DDR_access 0 1 2 3 =0,0,0,0,
			conv_3_br 64 (W:16,H:1,B:1,K:1) 0 util:100/100 E:8.386e+09, T:1933312, Cost:1.621e+16 Ubuf/Buf/Bus/Mac:6.769e+07/1.491e+09/0/1.353e+08 NoC energy = 1.495e+09 DRAM energy = 5.197e+09  NoC(NoC_tot_hops= 233603072 NoP_tot_hops= 0,core_hops=0, DRAM acc=61865984) 49561600/131072/25690112 NoCtime = 1933312 NocBW = 16 Computing_time = 458752DDR_access 0 1 2 3 =0,0,0,0,
			NoC info:(3,3) -> (2,3)	4530176 (3,2) -> (2,2)	4530176 (3,1) -> (2,1)	4530176 (3,0) -> (2,0)	4530176 
		S 64/64 0 E:1.053e+10, T:2611200, Cost:2.749e+16 Ubuf/Buf/Bus/Mac:1.049e+08/7.209e+08/0/6.79e+07 NoC energy = 2.616e+09 NoP energy = 0 DRAM energy = 7.019e+09  NoC(NoC_tot_hops= 408797184 NoP_tot_hops= 0,core_hops=76152832, DRAM acc=83558400) NoCtime = 2611200 NocBW = 16 DDR_access 0 1 2 3 =0,0,0,0,
			conv_3_0_res 1 (K:2,W:2,H:1,B:1) 0 util:100/100 E:1.327e+08, T:37632, Cost:4.994e+12 Ubuf/Buf/Bus/Mac:6.601e+05/0/0/7.009e+04 NoC energy = 3.083e+07 DRAM energy = 1.012e+08  NoC(NoC_tot_hops= 4816896 NoP_tot_hops= 0,core_hops=0, DRAM acc=1204224) 802816/0/401408 NoCtime = 37632 NocBW = 16 Computing_time = 3136DDR_access 0 1 2 3 =0,0,0,0,
			conv_3_1_a 1 (H:3,W:4,B:1,K:1) 0 util:100/100 E:3.18e+07, T:4480, Cost:1.425e+11 Ubuf/Buf/Bus/Mac:9.79e+05/1.126e+07/0/9.909e+05 NoC energy = 1.005e+07 DRAM energy = 8.516e+06  NoC(NoC_tot_hops= 1570560 NoP_tot_hops= 0,core_hops=1189888, DRAM acc=101376) 401408/65536/100352 NoCtime = 6288 NocBW = 16 Computing_time = 4480DDR_access 0 1 2 3 =0,0,0,0,
			NoC info:(2,0) -> (1,0)	16064512 (1,0) -> (2,0)	16064512 (2,0) -> (3,0)	14458880 (1,0) -> (0,0)	14458880 
		S 64/8 0 E:6.712e+09, T:1153536, Cost:7.743e+15 Ubuf/Buf/Bus/Mac:6.299e+07/2.279e+09/0/2.204e+08 NoC energy = 1.049e+09 NoP energy = 0 DRAM energy = 3.101e+09  NoC(NoC_tot_hops= 163930112 NoP_tot_hops= 0,core_hops=20807680, DRAM acc=36913152) NoCtime = 1153536 NocBW = 16 DDR_access 0 1 2 3 =0,0,0,0,
			conv_3_1_b 8 (W:11,H:1,B:1,K:1) 0 util:100/100 E:3.742e+08, T:96768, Cost:3.622e+13 Ubuf/Buf/Bus/Mac:3.175e+06/2.003e+08/0/1.962e+07 NoC energy = 3.395e+07 DRAM energy = 1.172e+08  NoC(NoC_tot_hops= 5305344 NoP_tot_hops= 0,core_hops=0, DRAM acc=1394688) 802816/147456/802816 NoCtime = 43584 NocBW = 16 Computing_time = 96768DDR_access 0 1 2 3 =0,0,0,0,
			conv_3_1_c 8 (H:5,W:1,B:1,K:1) 0 util:100/100 E:4.648e+08, T:100608, Cost:4.676e+13 Ubuf/Buf/Bus/Mac:4.699e+06/8.453e+07/0/7.927e+06 NoC energy = 9.719e+07 DRAM energy = 2.704e+08  NoC(NoC_tot_hops= 15185920 NoP_tot_hops= 0,core_hops=2600960, DRAM acc=3219456) 802816/65536/3211264 NoCtime = 100608 NocBW = 16 Computing_time = 86016DDR_access 0 1 2 3 =0,0,0,0,
			NoC info:(3,3) -> (4,3)	10092544 (0,3) -> (-1,3)	10092544 (2,3) -> (3,3)	8112128 (1,3) -> (0,3)	7710720 
		S 64/64 0 E:1.053e+10, T:2611200, Cost:2.749e+16 Ubuf/Buf/Bus/Mac:1.049e+08/7.209e+08/0/6.79e+07 NoC energy = 2.616e+09 NoP energy = 0 DRAM energy = 7.019e+09  NoC(NoC_tot_hops= 408797184 NoP_tot_hops= 0,core_hops=76152832, DRAM acc=83558400) NoCtime = 2611200 NocBW = 16 DDR_access 0 1 2 3 =0,0,0,0,
			conv_3_1_res 1 (K:2,W:2,H:1,B:1) 0 util:100/100 E:1.327e+08, T:37632, Cost:4.994e+12 Ubuf/Buf/Bus/Mac:6.601e+05/0/0/7.009e+04 NoC energy = 3.083e+07 DRAM energy = 1.012e+08  NoC(NoC_tot_hops= 4816896 NoP_tot_hops= 0,core_hops=0, DRAM acc=1204224) 802816/0/401408 NoCtime = 37632 NocBW = 16 Computing_time = 3136DDR_access 0 1 2 3 =0,0,0,0,
			conv_3_2_a 1 (H:3,W:4,B:1,K:1) 0 util:100/100 E:3.18e+07, T:4480, Cost:1.425e+11 Ubuf/Buf/Bus/Mac:9.79e+05/1.126e+07/0/9.909e+05 NoC energy = 1.005e+07 DRAM energy = 8.516e+06  NoC(NoC_tot_hops= 1570560 NoP_tot_hops= 0,core_hops=1189888, DRAM acc=101376) 401408/65536/100352 NoCtime = 6288 NocBW = 16 Computing_time = 4480DDR_access 0 1 2 3 =0,0,0,0,
			NoC info:(2,0) -> (1,0)	16064512 (1,0) -> (2,0)	16064512 (2,0) -> (3,0)	14458880 (1,0) -> (0,0)	14458880 
		S 64/8 0 E:6.712e+09, T:1153536, Cost:7.743e+15 Ubuf/Buf/Bus/Mac:6.299e+07/2.279e+09/0/2.204e+08 NoC energy = 1.049e+09 NoP energy = 0 DRAM energy = 3.101e+09  NoC(NoC_tot_hops= 163930112 NoP_tot_hops= 0,core_hops=20807680, DRAM acc=36913152) NoCtime = 1153536 NocBW = 16 DDR_access 0 1 2 3 =0,0,0,0,
			conv_3_2_b 8 (W:11,H:1,B:1,K:1) 0 util:100/100 E:3.742e+08, T:96768, Cost:3.622e+13 Ubuf/Buf/Bus/Mac:3.175e+06/2.003e+08/0/1.962e+07 NoC energy = 3.395e+07 DRAM energy = 1.172e+08  NoC(NoC_tot_hops= 5305344 NoP_tot_hops= 0,core_hops=0, DRAM acc=1394688) 802816/147456/802816 NoCtime = 43584 NocBW = 16 Computing_time = 96768DDR_access 0 1 2 3 =0,0,0,0,
			conv_3_2_c 8 (H:5,W:1,B:1,K:1) 0 util:100/100 E:4.648e+08, T:100608, Cost:4.676e+13 Ubuf/Buf/Bus/Mac:4.699e+06/8.453e+07/0/7.927e+06 NoC energy = 9.719e+07 DRAM energy = 2.704e+08  NoC(NoC_tot_hops= 15185920 NoP_tot_hops= 0,core_hops=2600960, DRAM acc=3219456) 802816/65536/3211264 NoCtime = 100608 NocBW = 16 Computing_time = 86016DDR_access 0 1 2 3 =0,0,0,0,
			NoC info:(3,3) -> (4,3)	10092544 (0,3) -> (-1,3)	10092544 (2,3) -> (3,3)	8112128 (1,3) -> (0,3)	7710720 
		S 64/64 0 E:1.053e+10, T:2611200, Cost:2.749e+16 Ubuf/Buf/Bus/Mac:1.049e+08/7.209e+08/0/6.79e+07 NoC energy = 2.616e+09 NoP energy = 0 DRAM energy = 7.019e+09  NoC(NoC_tot_hops= 408797184 NoP_tot_hops= 0,core_hops=76152832, DRAM acc=83558400) NoCtime = 2611200 NocBW = 16 DDR_access 0 1 2 3 =0,0,0,0,
			conv_3_2_res 1 (K:2,W:2,H:1,B:1) 0 util:100/100 E:1.327e+08, T:37632, Cost:4.994e+12 Ubuf/Buf/Bus/Mac:6.601e+05/0/0/7.009e+04 NoC energy = 3.083e+07 DRAM energy = 1.012e+08  NoC(NoC_tot_hops= 4816896 NoP_tot_hops= 0,core_hops=0, DRAM acc=1204224) 802816/0/401408 NoCtime = 37632 NocBW = 16 Computing_time = 3136DDR_access 0 1 2 3 =0,0,0,0,
			conv_3_3_a 1 (H:3,W:4,B:1,K:1) 0 util:100/100 E:3.18e+07, T:4480, Cost:1.425e+11 Ubuf/Buf/Bus/Mac:9.79e+05/1.126e+07/0/9.909e+05 NoC energy = 1.005e+07 DRAM energy = 8.516e+06  NoC(NoC_tot_hops= 1570560 NoP_tot_hops= 0,core_hops=1189888, DRAM acc=101376) 401408/65536/100352 NoCtime = 6288 NocBW = 16 Computing_time = 4480DDR_access 0 1 2 3 =0,0,0,0,
			NoC info:(2,0) -> (1,0)	16064512 (1,0) -> (2,0)	16064512 (2,0) -> (3,0)	14458880 (1,0) -> (0,0)	14458880 
		S 64/8 0 E:6.712e+09, T:1153536, Cost:7.743e+15 Ubuf/Buf/Bus/Mac:6.299e+07/2.279e+09/0/2.204e+08 NoC energy = 1.049e+09 NoP energy = 0 DRAM energy = 3.101e+09  NoC(NoC_tot_hops= 163930112 NoP_tot_hops= 0,core_hops=20807680, DRAM acc=36913152) NoCtime = 1153536 NocBW = 16 DDR_access 0 1 2 3 =0,0,0,0,
			conv_3_3_b 8 (W:11,H:1,B:1,K:1) 0 util:100/100 E:3.742e+08, T:96768, Cost:3.622e+13 Ubuf/Buf/Bus/Mac:3.175e+06/2.003e+08/0/1.962e+07 NoC energy = 3.395e+07 DRAM energy = 1.172e+08  NoC(NoC_tot_hops= 5305344 NoP_tot_hops= 0,core_hops=0, DRAM acc=1394688) 802816/147456/802816 NoCtime = 43584 NocBW = 16 Computing_time = 96768DDR_access 0 1 2 3 =0,0,0,0,
			conv_3_3_c 8 (H:5,W:1,B:1,K:1) 0 util:100/100 E:4.648e+08, T:100608, Cost:4.676e+13 Ubuf/Buf/Bus/Mac:4.699e+06/8.453e+07/0/7.927e+06 NoC energy = 9.719e+07 DRAM energy = 2.704e+08  NoC(NoC_tot_hops= 15185920 NoP_tot_hops= 0,core_hops=2600960, DRAM acc=3219456) 802816/65536/3211264 NoCtime = 100608 NocBW = 16 Computing_time = 86016DDR_access 0 1 2 3 =0,0,0,0,
			NoC info:(3,3) -> (4,3)	10092544 (0,3) -> (-1,3)	10092544 (2,3) -> (3,3)	8112128 (1,3) -> (0,3)	7710720 
		S 64/64 0 E:9.655e+09, T:2512896, Cost:2.426e+16 Ubuf/Buf/Bus/Mac:1.049e+08/4.083e+08/0/3.62e+07 NoC energy = 2.351e+09 NoP energy = 0 DRAM energy = 6.755e+09  NoC(NoC_tot_hops= 367349952 NoP_tot_hops= 0,core_hops=58515392, DRAM acc=80412672) NoCtime = 2512896 NocBW = 16 DDR_access 0 1 2 3 =0,0,0,0,
			conv_3_3_res 1 (W:2,K:3,H:1,B:1) 0 util:99.99/99.99 E:1.314e+08, T:37632, Cost:4.946e+12 Ubuf/Buf/Bus/Mac:6.601e+05/0/0/7.022e+04 NoC energy = 2.954e+07 DRAM energy = 1.012e+08  NoC(NoC_tot_hops= 4616388 NoP_tot_hops= 0,core_hops=0, DRAM acc=1204224) 802816/0/401408 NoCtime = 37632 NocBW = 16 Computing_time = 2095DDR_access 0 1 2 3 =0,0,0,0,
			conv_4_0_a 1 (H:5,W:2,B:1,K:1) 0 util:100/100 E:1.943e+07, T:2688, Cost:5.223e+10 Ubuf/Buf/Bus/Mac:9.789e+05/6.379e+06/0/4.955e+05 NoC energy = 7.19e+06 DRAM energy = 4.387e+06  NoC(NoC_tot_hops= 1123455 NoP_tot_hops= 0,core_hops=914303, DRAM acc=52224) 373248/131072/50176 NoCtime = 5440 NocBW = 16 Computing_time = 2688DDR_access 0 1 2 3 =0,0,0,0,
			NoC info:(1,0) -> (0,0)	11421056 (2,0) -> (1,0)	11414784 (1,0) -> (2,0)	10144256 (1,1) -> (2,1)	10120896 
		S 64/64 0 E:4.601e+09, T:786240, Cost:3.617e+15 Ubuf/Buf/Bus/Mac:1.328e+08/2.174e+09/0/2.008e+08 NoC energy = 6.732e+08 NoP energy = 0 DRAM energy = 1.42e+09  NoC(NoC_tot_hops= 105186560 NoP_tot_hops= 0,core_hops=10182144, DRAM acc=16908288) NoCtime = 528384 NocBW = 16 DDR_access 0 1 2 3 =0,0,0,0,
			conv_4_0_b 1 (K:11,W:1,H:1,B:1) 0 util:87.5/87.5 E:3.545e+07, T:12096, Cost:4.288e+11 Ubuf/Buf/Bus/Mac:1.098e+06/2.298e+07/0/2.146e+06 NoC energy = 4.231e+06 DRAM energy = 4.989e+06  NoC(NoC_tot_hops= 661148 NoP_tot_hops= 0,core_hops=0, DRAM acc=59392) 50176/589824/50176 NoCtime = 2393 NocBW = 16 Computing_time = 12096DDR_access 0 1 2 3 =0,0,0,0,
			conv_4_0_c 1 (W:5,H:1,B:1,K:1) 0 util:100/100 E:3.644e+07, T:10752, Cost:3.918e+11 Ubuf/Buf/Bus/Mac:9.761e+05/1.098e+07/0/9.909e+05 NoC energy = 6.287e+06 DRAM energy = 1.72e+07  NoC(NoC_tot_hops= 982392 NoP_tot_hops= 0,core_hops=159096, DRAM acc=204800) 50176/262144/200704 NoCtime = 6400 NocBW = 16 Computing_time = 10752DDR_access 0 1 2 3 =0,0,0,0,
			NoC info:(3,3) -> (4,3)	5046272 (0,3) -> (-1,3)	5046272 (2,3) -> (3,3)	4576768 (1,3) -> (0,3)	4124352 
		S 64/16 0 E:5.161e+09, T:950272, Cost:4.904e+15 Ubuf/Buf/Bus/Mac:1.068e+08/1.594e+09/0/1.353e+08 NoC energy = 7.709e+08 NoP energy = 0 DRAM energy = 2.554e+09  NoC(NoC_tot_hops= 120455168 NoP_tot_hops= 0,core_hops=0, DRAM acc=30408704) NoCtime = 950272 NocBW = 16 DDR_access 0 1 2 3 =0,0,0,0,
			conv_4_br 4 (H:2,W:8,B:1,K:1) 0 util:100/100 E:3.226e+08, T:59392, Cost:1.916e+13 Ubuf/Buf/Bus/Mac:6.676e+06/9.961e+07/0/8.456e+06 NoC energy = 4.818e+07 DRAM energy = 1.596e+08  NoC(NoC_tot_hops= 7528448 NoP_tot_hops= 0,core_hops=0, DRAM acc=1900544) 1492992/524288/802816 NoCtime = 59392 NocBW = 16 Computing_time = 28672DDR_access 0 1 2 3 =0,0,0,0,
			NoC info:(3,3) -> (2,3)	2211840 (3,2) -> (2,2)	2211840 (3,1) -> (2,1)	2211840 (3,0) -> (2,0)	2211840 
		S 64/64 0 E:5.829e+09, T:1312768, Cost:7.652e+15 Ubuf/Buf/Bus/Mac:1.63e+08/7.541e+08/0/6.143e+07 NoC energy = 1.322e+09 NoP energy = 0 DRAM energy = 3.529e+09  NoC(NoC_tot_hops= 206569472 NoP_tot_hops= 0,core_hops=36700160, DRAM acc=42008576) NoCtime = 1312768 NocBW = 16 DDR_access 0 1 2 3 =0,0,0,0,
			conv_4_0_res 1 (W:2,H:1,B:1,K:1) 0 util:100/100 E:6.636e+07, T:18816, Cost:1.249e+12 Ubuf/Buf/Bus/Mac:3.3e+05/0/0/3.504e+04 NoC energy = 1.541e+07 DRAM energy = 5.058e+07  NoC(NoC_tot_hops= 2408448 NoP_tot_hops= 0,core_hops=0, DRAM acc=602112) 401408/0/200704 NoCtime = 18816 NocBW = 16 Computing_time = 3136DDR_access 0 1 2 3 =0,0,0,0,
			conv_4_1_a 1 (H:7,W:2,B:1,K:1) 0 util:100/100 E:2.473e+07, T:3584, Cost:8.862e+10 Ubuf/Buf/Bus/Mac:2.216e+06/1.178e+07/0/9.248e+05 NoC energy = 5.243e+06 DRAM energy = 4.559e+06  NoC(NoC_tot_hops= 819200 NoP_tot_hops= 0,core_hops=573440, DRAM acc=54272) 200704/262144/50176 NoCtime = 7200 NocBW = 16 Computing_time = 3584DDR_access 0 1 2 3 =0,0,0,0,
			NoC info:(1,0) -> (2,0)	13795328 (2,0) -> (3,0)	10240000 (1,1) -> (1,0)	9633792 (0,1) -> (0,0)	9633792 
		S 64/4 0 E:2.327e+09, T:451584, Cost:1.051e+15 Ubuf/Buf/Bus/Mac:2.292e+07/1.366e+09/0/1.332e+08 NoC energy = 2.162e+08 NoP energy = 0 DRAM energy = 5.89e+08  NoC(NoC_tot_hops= 33783808 NoP_tot_hops= 0,core_hops=0, DRAM acc=7012352) NoCtime = 219136 NocBW = 16 DDR_access 0 1 2 3 =0,0,0,0,
			conv_4_1_b 16 (K:2,B:8,W:1,H:1) 0 util:100/100 E:5.818e+08, T:112896, Cost:6.568e+13 Ubuf/Buf/Bus/Mac:5.729e+06/3.414e+08/0/3.329e+07 NoC energy = 5.405e+07 DRAM energy = 1.473e+08  NoC(NoC_tot_hops= 8445952 NoP_tot_hops= 0,core_hops=0, DRAM acc=1753088) 802816/589824/802816 NoCtime = 54784 NocBW = 16 Computing_time = 112896DDR_access 0 1 2 3 =0,0,0,0,
			NoC info:(3,2) -> (3,1)	548864 (3,1) -> (3,2)	548864 (2,2) -> (2,1)	548864 (2,1) -> (2,2)	548864 
		S 64/64 0 E:4.32e+09, T:911360, Cost:3.937e+15 Ubuf/Buf/Bus/Mac:1.042e+08/6.854e+08/0/6.143e+07 NoC energy = 1.019e+09 NoP energy = 0 DRAM energy = 2.45e+09  NoC(NoC_tot_hops= 159186944 NoP_tot_hops= 0,core_hops=36700160, DRAM acc=29163520) NoCtime = 911360 NocBW = 16 DDR_access 0 1 2 3 =0,0,0,0,
			conv_4_1_c 1 (W:7,K:2,H:1,B:1) 0 util:100/100 E:1.946e+07, T:3584, Cost:6.976e+10 Ubuf/Buf/Bus/Mac:1.298e+06/1.071e+07/0/9.248e+05 NoC energy = 1.973e+06 DRAM energy = 4.559e+06  NoC(NoC_tot_hops= 308224 NoP_tot_hops= 0,core_hops=0, DRAM acc=54272) 50176/262144/200704 NoCtime = 1696 NocBW = 16 Computing_time = 3584DDR_access 0 1 2 3 =0,0,0,0,
			conv_4_1_res 1 (K:2,W:1,H:1,B:1) 0 util:100/100 E:4.803e+07, T:12544, Cost:6.025e+11 Ubuf/Buf/Bus/Mac:3.3e+05/0/0/3.504e+04 NoC energy = 1.395e+07 DRAM energy = 3.372e+07  NoC(NoC_tot_hops= 2179072 NoP_tot_hops= 0,core_hops=573440, DRAM acc=401408) 401408/0/200704 NoCtime = 12544 NocBW = 16 Computing_time = 3136DDR_access 0 1 2 3 =0,0,0,0,
			NoC info:(3,2) -> (3,3)	10321920 (2,2) -> (2,3)	10321920 (3,1) -> (3,2)	7176192 (2,1) -> (2,2)	7176192 
		S 64/64 0 E:4.68e+09, T:786240, Cost:3.68e+15 Ubuf/Buf/Bus/Mac:1.327e+08/2.2e+09/0/2.008e+08 NoC energy = 7.263e+08 NoP energy = 0 DRAM energy = 1.42e+09  NoC(NoC_tot_hops= 113477504 NoP_tot_hops= 0,core_hops=46333952, DRAM acc=16908288) NoCtime = 528384 NocBW = 16 DDR_access 0 1 2 3 =0,0,0,0,
			conv_4_2_a 1 (W:5,H:1,B:1,K:1) 0 util:100/100 E:3.588e+07, T:10752, Cost:3.858e+11 Ubuf/Buf/Bus/Mac:9.756e+05/1.139e+07/0/9.909e+05 NoC energy = 5.315e+06 DRAM energy = 1.72e+07  NoC(NoC_tot_hops= 830464 NoP_tot_hops= 0,core_hops=0, DRAM acc=204800) 200704/262144/50176 NoCtime = 6400 NocBW = 16 Computing_time = 10752DDR_access 0 1 2 3 =0,0,0,0,
			conv_4_2_b 1 (K:11,W:1,H:1,B:1) 0 util:87.5/87.5 E:3.725e+07, T:12096, Cost:4.505e+11 Ubuf/Buf/Bus/Mac:1.098e+06/2.298e+07/0/2.146e+06 NoC energy = 6.033e+06 DRAM energy = 4.989e+06  NoC(NoC_tot_hops= 942622 NoP_tot_hops= 0,core_hops=723968, DRAM acc=59392) 50176/589824/50176 NoCtime = 3190 NocBW = 16 Computing_time = 12096DDR_access 0 1 2 3 =0,0,0,0,
			NoC info:(0,0) -> (0,1)	3304448 (0,1) -> (0,2)	3266560 (3,1) -> (3,2)	3264256 (2,1) -> (2,2)	3264256 
		S 64/64 0 E:4.32e+09, T:911360, Cost:3.937e+15 Ubuf/Buf/Bus/Mac:1.042e+08/6.854e+08/0/6.143e+07 NoC energy = 1.019e+09 NoP energy = 0 DRAM energy = 2.45e+09  NoC(NoC_tot_hops= 159186944 NoP_tot_hops= 0,core_hops=36700160, DRAM acc=29163520) NoCtime = 911360 NocBW = 16 DDR_access 0 1 2 3 =0,0,0,0,
			conv_4_2_c 1 (W:7,K:2,H:1,B:1) 0 util:100/100 E:1.946e+07, T:3584, Cost:6.976e+10 Ubuf/Buf/Bus/Mac:1.298e+06/1.071e+07/0/9.248e+05 NoC energy = 1.973e+06 DRAM energy = 4.559e+06  NoC(NoC_tot_hops= 308224 NoP_tot_hops= 0,core_hops=0, DRAM acc=54272) 50176/262144/200704 NoCtime = 1696 NocBW = 16 Computing_time = 3584DDR_access 0 1 2 3 =0,0,0,0,
			conv_4_2_res 1 (K:2,W:1,H:1,B:1) 0 util:100/100 E:4.803e+07, T:12544, Cost:6.025e+11 Ubuf/Buf/Bus/Mac:3.3e+05/0/0/3.504e+04 NoC energy = 1.395e+07 DRAM energy = 3.372e+07  NoC(NoC_tot_hops= 2179072 NoP_tot_hops= 0,core_hops=573440, DRAM acc=401408) 401408/0/200704 NoCtime = 12544 NocBW = 16 Computing_time = 3136DDR_access 0 1 2 3 =0,0,0,0,
			NoC info:(3,2) -> (3,3)	10321920 (2,2) -> (2,3)	10321920 (3,1) -> (3,2)	7176192 (2,1) -> (2,2)	7176192 
		S 64/64 0 E:4.68e+09, T:786240, Cost:3.68e+15 Ubuf/Buf/Bus/Mac:1.327e+08/2.2e+09/0/2.008e+08 NoC energy = 7.263e+08 NoP energy = 0 DRAM energy = 1.42e+09  NoC(NoC_tot_hops= 113477504 NoP_tot_hops= 0,core_hops=46333952, DRAM acc=16908288) NoCtime = 528384 NocBW = 16 DDR_access 0 1 2 3 =0,0,0,0,
			conv_4_3_a 1 (W:5,H:1,B:1,K:1) 0 util:100/100 E:3.588e+07, T:10752, Cost:3.858e+11 Ubuf/Buf/Bus/Mac:9.756e+05/1.139e+07/0/9.909e+05 NoC energy = 5.315e+06 DRAM energy = 1.72e+07  NoC(NoC_tot_hops= 830464 NoP_tot_hops= 0,core_hops=0, DRAM acc=204800) 200704/262144/50176 NoCtime = 6400 NocBW = 16 Computing_time = 10752DDR_access 0 1 2 3 =0,0,0,0,
			conv_4_3_b 1 (K:11,W:1,H:1,B:1) 0 util:87.5/87.5 E:3.725e+07, T:12096, Cost:4.505e+11 Ubuf/Buf/Bus/Mac:1.098e+06/2.298e+07/0/2.146e+06 NoC energy = 6.033e+06 DRAM energy = 4.989e+06  NoC(NoC_tot_hops= 942622 NoP_tot_hops= 0,core_hops=723968, DRAM acc=59392) 50176/589824/50176 NoCtime = 3190 NocBW = 16 Computing_time = 12096DDR_access 0 1 2 3 =0,0,0,0,
			NoC info:(0,0) -> (0,1)	3304448 (0,1) -> (0,2)	3266560 (3,1) -> (3,2)	3264256 (2,1) -> (2,2)	3264256 
		S 64/64 0 E:4.32e+09, T:911360, Cost:3.937e+15 Ubuf/Buf/Bus/Mac:1.042e+08/6.854e+08/0/6.143e+07 NoC energy = 1.019e+09 NoP energy = 0 DRAM energy = 2.45e+09  NoC(NoC_tot_hops= 159186944 NoP_tot_hops= 0,core_hops=36700160, DRAM acc=29163520) NoCtime = 911360 NocBW = 16 DDR_access 0 1 2 3 =0,0,0,0,
			conv_4_3_c 1 (W:7,K:2,H:1,B:1) 0 util:100/100 E:1.946e+07, T:3584, Cost:6.976e+10 Ubuf/Buf/Bus/Mac:1.298e+06/1.071e+07/0/9.248e+05 NoC energy = 1.973e+06 DRAM energy = 4.559e+06  NoC(NoC_tot_hops= 308224 NoP_tot_hops= 0,core_hops=0, DRAM acc=54272) 50176/262144/200704 NoCtime = 1696 NocBW = 16 Computing_time = 3584DDR_access 0 1 2 3 =0,0,0,0,
			conv_4_3_res 1 (K:2,W:1,H:1,B:1) 0 util:100/100 E:4.803e+07, T:12544, Cost:6.025e+11 Ubuf/Buf/Bus/Mac:3.3e+05/0/0/3.504e+04 NoC energy = 1.395e+07 DRAM energy = 3.372e+07  NoC(NoC_tot_hops= 2179072 NoP_tot_hops= 0,core_hops=573440, DRAM acc=401408) 401408/0/200704 NoCtime = 12544 NocBW = 16 Computing_time = 3136DDR_access 0 1 2 3 =0,0,0,0,
			NoC info:(3,2) -> (3,3)	10321920 (2,2) -> (2,3)	10321920 (3,1) -> (3,2)	7176192 (2,1) -> (2,2)	7176192 
		S 64/64 0 E:4.68e+09, T:786240, Cost:3.68e+15 Ubuf/Buf/Bus/Mac:1.327e+08/2.2e+09/0/2.008e+08 NoC energy = 7.263e+08 NoP energy = 0 DRAM energy = 1.42e+09  NoC(NoC_tot_hops= 113477504 NoP_tot_hops= 0,core_hops=46333952, DRAM acc=16908288) NoCtime = 528384 NocBW = 16 DDR_access 0 1 2 3 =0,0,0,0,
			conv_4_4_a 1 (W:5,H:1,B:1,K:1) 0 util:100/100 E:3.588e+07, T:10752, Cost:3.858e+11 Ubuf/Buf/Bus/Mac:9.756e+05/1.139e+07/0/9.909e+05 NoC energy = 5.315e+06 DRAM energy = 1.72e+07  NoC(NoC_tot_hops= 830464 NoP_tot_hops= 0,core_hops=0, DRAM acc=204800) 200704/262144/50176 NoCtime = 6400 NocBW = 16 Computing_time = 10752DDR_access 0 1 2 3 =0,0,0,0,
			conv_4_4_b 1 (K:11,W:1,H:1,B:1) 0 util:87.5/87.5 E:3.725e+07, T:12096, Cost:4.505e+11 Ubuf/Buf/Bus/Mac:1.098e+06/2.298e+07/0/2.146e+06 NoC energy = 6.033e+06 DRAM energy = 4.989e+06  NoC(NoC_tot_hops= 942622 NoP_tot_hops= 0,core_hops=723968, DRAM acc=59392) 50176/589824/50176 NoCtime = 3190 NocBW = 16 Computing_time = 12096DDR_access 0 1 2 3 =0,0,0,0,
			NoC info:(0,0) -> (0,1)	3304448 (0,1) -> (0,2)	3266560 (3,1) -> (3,2)	3264256 (2,1) -> (2,2)	3264256 
		S 64/64 0 E:4.32e+09, T:911360, Cost:3.937e+15 Ubuf/Buf/Bus/Mac:1.042e+08/6.854e+08/0/6.143e+07 NoC energy = 1.019e+09 NoP energy = 0 DRAM energy = 2.45e+09  NoC(NoC_tot_hops= 159186944 NoP_tot_hops= 0,core_hops=36700160, DRAM acc=29163520) NoCtime = 911360 NocBW = 16 DDR_access 0 1 2 3 =0,0,0,0,
			conv_4_4_c 1 (W:7,K:2,H:1,B:1) 0 util:100/100 E:1.946e+07, T:3584, Cost:6.976e+10 Ubuf/Buf/Bus/Mac:1.298e+06/1.071e+07/0/9.248e+05 NoC energy = 1.973e+06 DRAM energy = 4.559e+06  NoC(NoC_tot_hops= 308224 NoP_tot_hops= 0,core_hops=0, DRAM acc=54272) 50176/262144/200704 NoCtime = 1696 NocBW = 16 Computing_time = 3584DDR_access 0 1 2 3 =0,0,0,0,
			conv_4_4_res 1 (K:2,W:1,H:1,B:1) 0 util:100/100 E:4.803e+07, T:12544, Cost:6.025e+11 Ubuf/Buf/Bus/Mac:3.3e+05/0/0/3.504e+04 NoC energy = 1.395e+07 DRAM energy = 3.372e+07  NoC(NoC_tot_hops= 2179072 NoP_tot_hops= 0,core_hops=573440, DRAM acc=401408) 401408/0/200704 NoCtime = 12544 NocBW = 16 Computing_time = 3136DDR_access 0 1 2 3 =0,0,0,0,
			NoC info:(3,2) -> (3,3)	10321920 (2,2) -> (2,3)	10321920 (3,1) -> (3,2)	7176192 (2,1) -> (2,2)	7176192 
		S 64/64 0 E:4.68e+09, T:786240, Cost:3.68e+15 Ubuf/Buf/Bus/Mac:1.327e+08/2.2e+09/0/2.008e+08 NoC energy = 7.263e+08 NoP energy = 0 DRAM energy = 1.42e+09  NoC(NoC_tot_hops= 113477504 NoP_tot_hops= 0,core_hops=46333952, DRAM acc=16908288) NoCtime = 528384 NocBW = 16 DDR_access 0 1 2 3 =0,0,0,0,
			conv_4_5_a 1 (W:5,H:1,B:1,K:1) 0 util:100/100 E:3.588e+07, T:10752, Cost:3.858e+11 Ubuf/Buf/Bus/Mac:9.756e+05/1.139e+07/0/9.909e+05 NoC energy = 5.315e+06 DRAM energy = 1.72e+07  NoC(NoC_tot_hops= 830464 NoP_tot_hops= 0,core_hops=0, DRAM acc=204800) 200704/262144/50176 NoCtime = 6400 NocBW = 16 Computing_time = 10752DDR_access 0 1 2 3 =0,0,0,0,
			conv_4_5_b 1 (K:11,W:1,H:1,B:1) 0 util:87.5/87.5 E:3.725e+07, T:12096, Cost:4.505e+11 Ubuf/Buf/Bus/Mac:1.098e+06/2.298e+07/0/2.146e+06 NoC energy = 6.033e+06 DRAM energy = 4.989e+06  NoC(NoC_tot_hops= 942622 NoP_tot_hops= 0,core_hops=723968, DRAM acc=59392) 50176/589824/50176 NoCtime = 3190 NocBW = 16 Computing_time = 12096DDR_access 0 1 2 3 =0,0,0,0,
			NoC info:(0,0) -> (0,1)	3304448 (0,1) -> (0,2)	3266560 (3,1) -> (3,2)	3264256 (2,1) -> (2,2)	3264256 
		S 64/64 0 E:5.468e+09, T:1131676, Cost:6.188e+15 Ubuf/Buf/Bus/Mac:1.286e+08/1.135e+09/0/9.555e+07 NoC energy = 1.48e+09 NoP energy = 0 DRAM energy = 2.629e+09  NoC(NoC_tot_hops= 231280896 NoP_tot_hops= 0,core_hops=106895488, DRAM acc=31293440) NoCtime = 1131676 NocBW = 16 DDR_access 0 1 2 3 =0,0,0,0,
			conv_4_5_c 1 (K:3,W:3,H:1,B:1) 0 util:97.16/97.16 E:1.996e+07, T:6160, Cost:1.23e+11 Ubuf/Buf/Bus/Mac:8.117e+05/1.099e+07/0/9.928e+05 NoC energy = 2.617e+06 DRAM energy = 4.559e+06  NoC(NoC_tot_hops= 408834 NoP_tot_hops= 0,core_hops=0, DRAM acc=54272) 50176/262144/200704 NoCtime = 1696 NocBW = 16 Computing_time = 6160DDR_access 0 1 2 3 =0,0,0,0,
			conv_4_5_res 1 (K:2,W:1,H:1,B:1) 0 util:100/100 E:4.601e+07, T:12544, Cost:5.772e+11 Ubuf/Buf/Bus/Mac:3.3e+05/0/0/3.504e+04 NoC energy = 1.193e+07 DRAM energy = 3.372e+07  NoC(NoC_tot_hops= 1863778 NoP_tot_hops= 0,core_hops=458850, DRAM acc=401408) 401408/0/200704 NoCtime = 12544 NocBW = 16 Computing_time = 3136DDR_access 0 1 2 3 =0,0,0,0,
			conv_5_0_a 1 (K:5,W:1,H:1,B:1) 0 util:86.66/86.66 E:1.945e+07, T:5824, Cost:1.133e+11 Ubuf/Buf/Bus/Mac:8.674e+05/6.743e+06/0/4.651e+05 NoC energy = 8.583e+06 DRAM energy = 2.796e+06  NoC(NoC_tot_hops= 1341152 NoP_tot_hops= 0,core_hops=1211392, DRAM acc=33280) 173056/524288/25088 NoCtime = 10987 NocBW = 16 Computing_time = 5824DDR_access 0 1 2 3 =0,0,0,0,
			NoC info:(1,2) -> (0,2)	18106816 (2,2) -> (3,2)	17832896 (1,2) -> (2,2)	11247488 (1,2) -> (1,3)	11154688 
		S 64/16 0 E:3.855e+09, T:719712, Cost:2.774e+15 Ubuf/Buf/Bus/Mac:7.625e+07/2.137e+09/0/1.937e+08 NoC energy = 4.874e+08 NoP energy = 0 DRAM energy = 9.606e+08  NoC(NoC_tot_hops= 76159360 NoP_tot_hops= 0,core_hops=18264064, DRAM acc=11436032) NoCtime = 357376 NocBW = 16 DDR_access 0 1 2 3 =0,0,0,0,
			conv_5_0_b 4 (K:11,W:1,H:1,B:1) 0 util:97.92/97.92 E:1.377e+08, T:42336, Cost:5.831e+12 Ubuf/Buf/Bus/Mac:3.204e+06/9.38e+07/0/8.405e+06 NoC energy = 1.15e+07 DRAM energy = 2.082e+07  NoC(NoC_tot_hops= 1797424 NoP_tot_hops= 0,core_hops=0, DRAM acc=247808) 100352/2359296/100352 NoCtime = 7744 NocBW = 16 Computing_time = 42336DDR_access 0 1 2 3 =0,0,0,0,
			conv_5_0_c 4 (K:5,W:1,H:1,B:1) 0 util:98.56/98.56 E:1.032e+08, T:40768, Cost:4.207e+12 Ubuf/Buf/Bus/Mac:1.562e+06/3.974e+07/0/3.703e+06 NoC energy = 1.896e+07 DRAM energy = 3.922e+07  NoC(NoC_tot_hops= 2962536 NoP_tot_hops= 0,core_hops=1141504, DRAM acc=466944) 100352/1048576/401408 NoCtime = 14592 NocBW = 16 Computing_time = 40768DDR_access 0 1 2 3 =0,0,0,0,
			NoC info:(3,3) -> (4,3)	2568384 (0,3) -> (-1,3)	2568384 (2,3) -> (3,3)	2234336 (1,3) -> (0,3)	2232512 
		S 64/32 0 E:4.152e+09, T:532480, Cost:2.211e+15 Ubuf/Buf/Bus/Mac:1.865e+08/1.824e+09/0/1.353e+08 NoC energy = 5.748e+08 NoP energy = 0 DRAM energy = 1.431e+09  NoC(NoC_tot_hops= 89817088 NoP_tot_hops= 0,core_hops=0, DRAM acc=17039360) NoCtime = 532480 NocBW = 16 DDR_access 0 1 2 3 =0,0,0,0,
			conv_5_br 2 (K:4,W:4,H:1,B:1) 0 util:100/100 E:1.298e+08, T:16640, Cost:2.159e+12 Ubuf/Buf/Bus/Mac:5.828e+06/5.701e+07/0/4.228e+06 NoC energy = 1.796e+07 DRAM energy = 4.473e+07  NoC(NoC_tot_hops= 2806784 NoP_tot_hops= 0,core_hops=0, DRAM acc=532480) 346112/2097152/200704 NoCtime = 16640 NocBW = 16 Computing_time = 14336DDR_access 0 1 2 3 =0,0,0,0,
			NoC info:(2,2) -> (2,3)	2310144 (2,1) -> (2,0)	2310144 (1,2) -> (1,3)	2310144 (1,1) -> (1,0)	2310144 
		S 64/64 0 E:5.861e+09, T:931392, Cost:5.458e+15 Ubuf/Buf/Bus/Mac:1.999e+08/2.469e+09/0/1.959e+08 NoC energy = 9.559e+08 NoP energy = 0 DRAM energy = 2.04e+09  NoC(NoC_tot_hops= 149360448 NoP_tot_hops= 0,core_hops=53638144, DRAM acc=24281088) NoCtime = 758784 NocBW = 16 DDR_access 0 1 2 3 =0,0,0,0,
			conv_5_0_res 1 (W:1,H:1,B:1,K:1) 0 util:100/100 E:3.318e+07, T:9408, Cost:3.121e+11 Ubuf/Buf/Bus/Mac:1.65e+05/0/0/1.752e+04 NoC energy = 7.707e+06 DRAM energy = 2.529e+07  NoC(NoC_tot_hops= 1204224 NoP_tot_hops= 0,core_hops=0, DRAM acc=301056) 200704/0/100352 NoCtime = 9408 NocBW = 16 Computing_time = 3136DDR_access 0 1 2 3 =0,0,0,0,
			conv_5_1_a 1 (K:5,W:1,H:1,B:1) 0 util:86.66/86.66 E:1.958e+07, T:11648, Cost:2.28e+11 Ubuf/Buf/Bus/Mac:1.391e+06/1.227e+07/0/9.303e+05 NoC energy = 3.61e+06 DRAM energy = 1.376e+06  NoC(NoC_tot_hops= 564032 NoP_tot_hops= 0,core_hops=501760, DRAM acc=16384) 100352/1048576/25088 NoCtime = 6375 NocBW = 16 Computing_time = 11648DDR_access 0 1 2 3 =0,0,0,0,
			conv_5_1_b 1 (K:10,W:1,H:1,B:1) 0 util:81.25/81.25 E:3.882e+07, T:14112, Cost:5.478e+11 Ubuf/Buf/Bus/Mac:1.568e+06/2.631e+07/0/2.113e+06 NoC energy = 3.619e+06 DRAM energy = 5.204e+06  NoC(NoC_tot_hops= 565501 NoP_tot_hops= 0,core_hops=336336, DRAM acc=61952) 25088/2359296/25088 NoCtime = 1936 NocBW = 16 Computing_time = 14112DDR_access 0 1 2 3 =0,0,0,0,
			NoC info:(2,0) -> (3,0)	10391744 (1,0) -> (2,0)	10186688 (0,0) -> (1,0)	9974912 (0,1) -> (0,0)	9633792 
		S 64/64 0 E:4.199e+09, T:633448, Cost:2.66e+15 Ubuf/Buf/Bus/Mac:1.768e+08/1.475e+09/0/1.202e+08 NoC energy = 9.013e+08 NoP energy = 0 DRAM energy = 1.525e+09  NoC(NoC_tot_hops= 140823168 NoP_tot_hops= 0,core_hops=64225280, DRAM acc=18153472) NoCtime = 633448 NocBW = 16 DDR_access 0 1 2 3 =0,0,0,0,
			conv_5_1_c 1 (K:8,W:1,H:1,B:1) 0 util:100/100 E:1.764e+07, T:6272, Cost:1.106e+11 Ubuf/Buf/Bus/Mac:8.816e+05/1.019e+07/0/9.248e+05 NoC energy = 2.159e+06 DRAM energy = 3.484e+06  NoC(NoC_tot_hops= 337408 NoP_tot_hops= 0,core_hops=0, DRAM acc=41472) 25088/1048576/100352 NoCtime = 1296 NocBW = 16 Computing_time = 6272DDR_access 0 1 2 3 =0,0,0,0,
			conv_5_1_res 1 (W:1,H:1,B:1,K:1) 0 util:100/100 E:2.346e+07, T:6272, Cost:1.472e+11 Ubuf/Buf/Bus/Mac:1.65e+05/0/0/1.752e+04 NoC energy = 6.423e+06 DRAM energy = 1.686e+07  NoC(NoC_tot_hops= 1003520 NoP_tot_hops= 0,core_hops=301056, DRAM acc=200704) 200704/0/100352 NoCtime = 9408 NocBW = 16 Computing_time = 3136DDR_access 0 1 2 3 =0,0,0,0,
			conv_5_2_a 1 (K:7,W:1,H:1,B:1) 0 util:80.94/80.94 E:2.45e+07, T:8960, Cost:2.195e+11 Ubuf/Buf/Bus/Mac:1.716e+06/1.287e+07/0/9.357e+05 NoC energy = 5.5e+06 DRAM energy = 3.484e+06  NoC(NoC_tot_hops= 859434 NoP_tot_hops= 0,core_hops=702464, DRAM acc=41472) 100352/1048576/25088 NoCtime = 6534 NocBW = 16 Computing_time = 8960DDR_access 0 1 2 3 =0,0,0,0,
			NoC info:(2,2) -> (3,2)	10135168 (1,2) -> (2,2)	10090816 (0,2) -> (1,2)	10045184 (0,1) -> (0,2)	9708544 
		S 64/64 0 E:4.136e+09, T:945504, Cost:3.911e+15 Ubuf/Buf/Bus/Mac:1.63e+08/2.227e+09/0/1.944e+08 NoC energy = 5.802e+08 NoP energy = 0 DRAM energy = 9.716e+08  NoC(NoC_tot_hops= 90649152 NoP_tot_hops= 0,core_hops=33307456, DRAM acc=11567104) NoCtime = 541940 NocBW = 16 DDR_access 0 1 2 3 =0,0,0,0,
			conv_5_2_b 1 (K:9,W:1,H:1,B:1) 0 util:89.06/89.06 E:3.616e+07, T:14112, Cost:5.103e+11 Ubuf/Buf/Bus/Mac:1.524e+06/2.462e+07/0/2.085e+06 NoC energy = 2.725e+06 DRAM energy = 5.204e+06  NoC(NoC_tot_hops= 425744 NoP_tot_hops= 0,core_hops=0, DRAM acc=61952) 25088/2359296/25088 NoCtime = 1936 NocBW = 16 Computing_time = 14112DDR_access 0 1 2 3 =0,0,0,0,
			conv_5_2_c 1 (K:5,W:1,H:1,B:1) 0 util:98.56/98.56 E:1.532e+07, T:10192, Cost:1.562e+11 Ubuf/Buf/Bus/Mac:8.007e+05/1.017e+07/0/9.257e+05 NoC energy = 2.049e+06 DRAM energy = 1.376e+06  NoC(NoC_tot_hops= 320124 NoP_tot_hops= 0,core_hops=259504, DRAM acc=16384) 25088/1048576/100352 NoCtime = 1722 NocBW = 16 Computing_time = 10192DDR_access 0 1 2 3 =0,0,0,0,
			conv_5_2_res 1 (W:1,H:1,B:1,K:1) 0 util:100/100 E:1.221e+07, T:3136, Cost:3.829e+10 Ubuf/Buf/Bus/Mac:1.65e+05/0/0/1.752e+04 NoC energy = 3.597e+06 DRAM energy = 8.43e+06  NoC(NoC_tot_hops= 561981 NoP_tot_hops= 0,core_hops=160573, DRAM acc=100352) 200704/0/100352 NoCtime = 8468 NocBW = 16 Computing_time = 3136DDR_access 0 1 2 3 =0,0,0,0,
			pool5 1 (W:1,H:1,B:1,K:1) 0 util:100/100 E:9.329e+05, T:1568, Cost:1.463e+09 Ubuf/Buf/Bus/Mac:5.743e+04/0/0/8761 NoC energy = 6.947e+05 DRAM energy = 1.72e+05  NoC(NoC_tot_hops= 108544 NoP_tot_hops= 0,core_hops=100352, DRAM acc=2048) 100352/0/2048 NoCtime = 6272 NocBW = 16 Computing_time = 1568DDR_access 0 1 2 3 =0,0,0,0,
			NoC info:(2,2) -> (2,3)	8671040 (2,3) -> (3,3)	6715072 (2,1) -> (2,2)	4746240 (1,3) -> (2,3)	3755648 
		S 64/1 0 E:3.31e+08, T:70096, Cost:2.32e+13 Ubuf/Buf/Bus/Mac:4.566e+06/7.151e+07/0/2.378e+06 NoC energy = 6.411e+07 NoP energy = 0 DRAM energy = 1.884e+08  NoC(NoC_tot_hops= 10017152 NoP_tot_hops= 0,core_hops=0, DRAM acc=2243072) NoCtime = 70096 NocBW = 16 DDR_access 0 1 2 3 =0,0,0,0,
			fc 64 (K:16,W:1,H:1,B:1) 0 util:98.44/98.44 E:3.31e+08, T:70096, Cost:2.32e+13 Ubuf/Buf/Bus/Mac:4.566e+06/7.151e+07/0/2.378e+06 NoC energy = 6.411e+07 DRAM energy = 1.884e+08  NoC(NoC_tot_hops= 10017152 NoP_tot_hops= 0,core_hops=0, DRAM acc=2243072) 131072/2048000/64000 NoCtime = 70096 NocBW = 16 Computing_time = 8192DDR_access 0 1 2 3 =0,0,0,0,
			NoC info:(4,3) -> (3,3)	272384 (4,2) -> (3,2)	272384 (4,1) -> (3,1)	272384 (4,0) -> (3,0)	272384 
SPM search process time : 1
Schtree_spm (after SPM search):
	T 64/1 0 E:2.659e+11, T:60298326, Cost:1.604e+19 Ubuf/Buf/Bus/Mac:3.711e+09/5.116e+10/0/4.636e+09 NoC energy = 5.126e+10 NoP energy = 0 DRAM energy = 1.552e+11  NoC(NoC_tot_hops= 8009932992 NoP_tot_hops= 0,core_hops=986915904, DRAM acc=1847199680) NoCtime = 57959358 NocBW = 16 DDR_access 0 1 2 3 =461975024,462249456,463674864,459300336,
		S 64/1 0 E:9.091e+09, T:1906982, Cost:1.734e+16 Ubuf/Buf/Bus/Mac:6.293e+07/2.301e+09/0/1.36e+08 NoC energy = 1.465e+09 NoP energy = 0 DRAM energy = 5.126e+09  NoC(NoC_tot_hops= 228953088 NoP_tot_hops= 0,core_hops=0, DRAM acc=61023424) NoCtime = 1906982 NocBW = 16 DDR_access 0 1 2 3 =15255856,15255856,15255856,15255856,
			conv1 64 (B:16,K:1,H:1,W:1) 0 util:37.5/37.5 E:9.091e+09, T:1906982, Cost:1.734e+16 Ubuf/Buf/Bus/Mac:6.293e+07/2.301e+09/0/1.36e+08 NoC energy = 1.465e+09 DRAM energy = 5.126e+09  NoC(NoC_tot_hops= 228953088 NoP_tot_hops= 0,core_hops=0, DRAM acc=61023424) 9633792/9408/51380224 NoCtime = 1906982 NocBW = 16 Computing_time = 1229312DDR_access 0 1 2 3 =15255856,15255856,15255856,15255856,
			NoC info:(4,2) -> (4,1)	6422528 (4,1) -> (4,2)	6422528 (3,3) -> (4,3)	6422528 (3,2) -> (4,2)	6422528 
		S 64/64 0 E:6.982e+09, T:2007040, Cost:1.401e+16 Ubuf/Buf/Bus/Mac:3.555e+07/0/0/1.009e+07 NoC energy = 1.541e+09 NoP energy = 0 DRAM energy = 5.395e+09  NoC(NoC_tot_hops= 240844800 NoP_tot_hops= 0,core_hops=0, DRAM acc=64225280) NoCtime = 2007040 NocBW = 16 DDR_access 0 1 2 3 =16056320,16056320,16056320,16056320,
			pool1 1 (B:1,K:16,H:1,W:1) 0 util:100/100 E:1.091e+08, T:31360, Cost:3.421e+12 Ubuf/Buf/Bus/Mac:5.555e+05/0/0/1.577e+05 NoC energy = 2.408e+07 DRAM energy = 8.43e+07  NoC(NoC_tot_hops= 3763200 NoP_tot_hops= 0,core_hops=0, DRAM acc=1003520) 802816/0/200704 NoCtime = 31360 NocBW = 16 Computing_time = 1764DDR_access 0 1 2 3 =250880,250880,250880,250880,
			NoC info:(4,3) -> (3,3)	6422528 (4,2) -> (3,2)	6422528 (4,1) -> (3,1)	6422528 (4,0) -> (3,0)	6422528 
		S 64/64 0 E:1.738e+10, T:4017408, Cost:6.981e+16 Ubuf/Buf/Bus/Mac:2.069e+08/2.858e+09/0/2.674e+08 NoC energy = 3.249e+09 NoP energy = 0 DRAM energy = 1.08e+10  NoC(NoC_tot_hops= 507724800 NoP_tot_hops= 0,core_hops=38993920, DRAM acc=128524288) NoCtime = 4017408 NocBW = 16 DDR_access 0 1 2 3 =32122880,32139264,32122880,32139264,
			conv_2_0_a 1 (B:1,K:1,H:1,W:1) 0 util:100/100 E:2.458e+07, T:12544, Cost:3.083e+11 Ubuf/Buf/Bus/Mac:4.368e+05/2.547e+06/0/2.312e+05 NoC energy = 4.497e+06 DRAM energy = 1.686e+07  NoC(NoC_tot_hops= 702688 NoP_tot_hops= 0,core_hops=0, DRAM acc=200768) 200704/4096/200704 NoCtime = 6274 NocBW = 16 Computing_time = 12544DDR_access 0 1 2 3 =50192,50192,50192,50192,
			conv_2_0_b 1 (B:1,K:1,H:1,W:2) 0 util:100/100 E:2.51e+07, T:56448, Cost:1.417e+12 Ubuf/Buf/Bus/Mac:5.001e+05/2.112e+07/0/2.081e+06 NoC energy = 1.348e+06 DRAM energy = 4.838e+04  NoC(NoC_tot_hops= 210608 NoP_tot_hops= 0,core_hops=207872, DRAM acc=576) 200704/36864/200704 NoCtime = 6523 NocBW = 16 Computing_time = 56448DDR_access 0 1 2 3 =144,144,144,144,
			conv_2_0_c 1 (B:1,K:1,H:1,W:1) 0 util:100/100 E:1e+08, T:50176, Cost:5.018e+12 Ubuf/Buf/Bus/Mac:1.095e+06/9.978e+06/0/9.248e+05 NoC energy = 2.056e+07 DRAM energy = 6.746e+07  NoC(NoC_tot_hops= 3212416 NoP_tot_hops= 0,core_hops=401408, DRAM acc=803072) 200704/16384/802816 NoCtime = 25120 NocBW = 16 Computing_time = 50176DDR_access 0 1 2 3 =200704,200704,200704,200960,
			conv_2_br 1 (B:1,K:1,H:3,W:4) 0 util:100/100 E:1.218e+08, T:31392, Cost:3.825e+12 Ubuf/Buf/Bus/Mac:1.201e+06/1.101e+07/0/9.414e+05 NoC energy = 2.437e+07 DRAM energy = 8.432e+07  NoC(NoC_tot_hops= 3807488 NoP_tot_hops= 0,core_hops=0, DRAM acc=1003776) 200704/16384/802816 NoCtime = 31392 NocBW = 16 Computing_time = 4256DDR_access 0 1 2 3 =250880,251136,250880,250880,
			NoC info:(3,2) -> (4,2)	30048256 (0,2) -> (-1,2)	30048256 (0,2) -> (1,2)	28513280 (2,2) -> (3,2)	28407808 
		S 64/64 0 E:1.672e+10, T:4816896, Cost:8.056e+16 Ubuf/Buf/Bus/Mac:8.449e+07/0/0/1.025e+07 NoC energy = 3.682e+09 NoP energy = 0 DRAM energy = 1.295e+10  NoC(NoC_tot_hops= 575275008 NoP_tot_hops= 0,core_hops=0, DRAM acc=154140672) NoCtime = 4816896 NocBW = 16 DDR_access 0 1 2 3 =38535168,38535168,38535168,38535168,
			conv_2_0_res 1 (B:1,K:1,H:16,W:1) 0 util:100/100 E:2.613e+08, T:75264, Cost:1.967e+13 Ubuf/Buf/Bus/Mac:1.32e+06/0/0/1.602e+05 NoC energy = 5.753e+07 DRAM energy = 2.023e+08  NoC(NoC_tot_hops= 8988672 NoP_tot_hops= 0,core_hops=0, DRAM acc=2408448) 1605632/0/802816 NoCtime = 75264 NocBW = 16 Computing_time = 1792DDR_access 0 1 2 3 =602112,602112,602112,602112,
			NoC info:(4,3) -> (3,3)	12845056 (4,2) -> (3,2)	12845056 (4,1) -> (3,1)	12845056 (4,0) -> (3,0)	12845056 
		S 64/64 0 E:1.451e+10, T:3216512, Cost:4.668e+16 Ubuf/Buf/Bus/Mac:1.805e+08/2.65e+09/0/2.516e+08 NoC energy = 2.794e+09 NoP energy = 0 DRAM energy = 8.638e+09  NoC(NoC_tot_hops= 436570112 NoP_tot_hops= 0,core_hops=60157952, DRAM acc=102830080) NoCtime = 3216512 NocBW = 16 DDR_access 0 1 2 3 =25699328,25699328,25699328,25732096,
			conv_2_1_a 1 (B:1,K:1,H:2,W:2) 0 util:100/100 E:9.808e+07, T:25120, Cost:2.464e+12 Ubuf/Buf/Bus/Mac:1.121e+06/9.933e+06/0/9.248e+05 NoC energy = 1.864e+07 DRAM energy = 6.746e+07  NoC(NoC_tot_hops= 2912768 NoP_tot_hops= 0,core_hops=0, DRAM acc=803072) 802816/16384/200704 NoCtime = 25120 NocBW = 16 Computing_time = 12544DDR_access 0 1 2 3 =200704,200704,200704,200960,
			conv_2_1_b 1 (B:1,K:1,H:2,W:2) 0 util:100/100 E:2.64e+07, T:28224, Cost:7.452e+11 Ubuf/Buf/Bus/Mac:5.434e+05/2.121e+07/0/2.081e+06 NoC energy = 2.518e+06 DRAM energy = 4.838e+04  NoC(NoC_tot_hops= 393504 NoP_tot_hops= 0,core_hops=388032, DRAM acc=576) 200704/36864/200704 NoCtime = 3391 NocBW = 16 Computing_time = 28224DDR_access 0 1 2 3 =144,144,144,144,
			conv_2_1_c 1 (B:1,K:1,H:1,W:8) 0 util:100/100 E:1.023e+08, T:25120, Cost:2.57e+12 Ubuf/Buf/Bus/Mac:1.156e+06/1.027e+07/0/9.248e+05 NoC energy = 2.25e+07 DRAM energy = 6.746e+07  NoC(NoC_tot_hops= 3515136 NoP_tot_hops= 0,core_hops=551936, DRAM acc=803072) 200704/16384/802816 NoCtime = 25120 NocBW = 16 Computing_time = 6272DDR_access 0 1 2 3 =200704,200704,200704,200960,
			NoC info:(1,2) -> (0,2)	11260416 (2,2) -> (1,2)	9654784 (3,1) -> (3,0)	9650176 (3,2) -> (4,2)	9633792 
		S 64/64 0 E:1.672e+10, T:4816896, Cost:8.056e+16 Ubuf/Buf/Bus/Mac:8.449e+07/0/0/1.025e+07 NoC energy = 3.682e+09 NoP energy = 0 DRAM energy = 1.295e+10  NoC(NoC_tot_hops= 575275008 NoP_tot_hops= 0,core_hops=0, DRAM acc=154140672) NoCtime = 4816896 NocBW = 16 DDR_access 0 1 2 3 =38535168,38535168,38535168,38535168,
			conv_2_1_res 1 (B:1,K:1,H:1,W:16) 0 util:100/100 E:2.613e+08, T:75264, Cost:1.967e+13 Ubuf/Buf/Bus/Mac:1.32e+06/0/0/1.602e+05 NoC energy = 5.753e+07 DRAM energy = 2.023e+08  NoC(NoC_tot_hops= 8988672 NoP_tot_hops= 0,core_hops=0, DRAM acc=2408448) 1605632/0/802816 NoCtime = 75264 NocBW = 16 Computing_time = 1792DDR_access 0 1 2 3 =602112,602112,602112,602112,
			NoC info:(4,3) -> (3,3)	12845056 (4,2) -> (3,2)	12845056 (4,1) -> (3,1)	12845056 (4,0) -> (3,0)	12845056 
		S 64/64 0 E:1.447e+10, T:3215872, Cost:4.654e+16 Ubuf/Buf/Bus/Mac:1.805e+08/2.65e+09/0/2.516e+08 NoC energy = 2.752e+09 NoP energy = 0 DRAM energy = 8.638e+09  NoC(NoC_tot_hops= 430063616 NoP_tot_hops= 0,core_hops=50511872, DRAM acc=102830080) NoCtime = 3215872 NocBW = 16 DDR_access 0 1 2 3 =25726976,25690112,25690112,25722880,
			conv_2_2_a 1 (B:1,K:1,H:2,W:2) 0 util:100/100 E:9.808e+07, T:25120, Cost:2.464e+12 Ubuf/Buf/Bus/Mac:1.121e+06/9.933e+06/0/9.248e+05 NoC energy = 1.864e+07 DRAM energy = 6.746e+07  NoC(NoC_tot_hops= 2912640 NoP_tot_hops= 0,core_hops=0, DRAM acc=803072) 802816/16384/200704 NoCtime = 25120 NocBW = 16 Computing_time = 12544DDR_access 0 1 2 3 =200704,200704,200704,200960,
			conv_2_2_b 1 (B:1,K:1,H:2,W:2) 0 util:100/100 E:2.672e+07, T:28224, Cost:7.541e+11 Ubuf/Buf/Bus/Mac:5.434e+05/2.121e+07/0/2.081e+06 NoC energy = 2.833e+06 DRAM energy = 4.838e+04  NoC(NoC_tot_hops= 442624 NoP_tot_hops= 0,core_hops=438016, DRAM acc=576) 200704/36864/200704 NoCtime = 3400 NocBW = 16 Computing_time = 28224DDR_access 0 1 2 3 =576,0,0,0,
			conv_2_2_c 1 (B:1,K:1,H:2,W:4) 0 util:100/100 E:1.013e+08, T:25120, Cost:2.546e+12 Ubuf/Buf/Bus/Mac:1.156e+06/1.027e+07/0/9.248e+05 NoC energy = 2.153e+07 DRAM energy = 6.746e+07  NoC(NoC_tot_hops= 3364480 NoP_tot_hops= 0,core_hops=351232, DRAM acc=803072) 200704/16384/802816 NoCtime = 25120 NocBW = 16 Computing_time = 6272DDR_access 0 1 2 3 =200704,200704,200704,200960,
			NoC info:(0,2) -> (0,1)	12861440 (2,3) -> (1,3)	11255808 (1,3) -> (0,3)	11255808 (2,2) -> (1,2)	9650176 
		S 64/64 0 E:1.836e+10, T:5021696, Cost:9.219e+16 Ubuf/Buf/Bus/Mac:1.302e+08/3.622e+08/0/4.228e+07 NoC energy = 4.333e+09 NoP energy = 0 DRAM energy = 1.349e+10  NoC(NoC_tot_hops= 677052416 NoP_tot_hops= 0,core_hops=84705280, DRAM acc=160595968) NoCtime = 5021696 NocBW = 16 DDR_access 0 1 2 3 =40173568,40140800,40140800,40140800,
			conv_2_2_res 1 (B:1,K:1,H:1,W:11) 0 util:100/100 E:2.605e+08, T:75264, Cost:1.961e+13 Ubuf/Buf/Bus/Mac:1.32e+06/0/0/1.652e+05 NoC energy = 5.67e+07 DRAM energy = 2.023e+08  NoC(NoC_tot_hops= 8859648 NoP_tot_hops= 0,core_hops=0, DRAM acc=2408448) 1605632/0/802816 NoCtime = 75264 NocBW = 16 Computing_time = 2688DDR_access 0 1 2 3 =602112,602112,602112,602112,
			conv_3_0_a 1 (B:1,K:1,H:1,W:5) 0 util:100/100 E:2.635e+07, T:5376, Cost:1.416e+11 Ubuf/Buf/Bus/Mac:7.149e+05/5.659e+06/0/4.955e+05 NoC energy = 1.1e+07 DRAM energy = 8.473e+06  NoC(NoC_tot_hops= 1719296 NoP_tot_hops= 0,core_hops=1323520, DRAM acc=100864) 774400/32768/100352 NoCtime = 9712 NocBW = 16 Computing_time = 5376DDR_access 0 1 2 3 =25600,25088,25088,25088,
			NoC info:(0,0) -> (1,0)	16465920 (1,3) -> (0,3)	15679488 (2,2) -> (3,2)	13434880 (2,3) -> (1,3)	13221888 
		S 64/8 0 E:5.84e+09, T:1016320, Cost:5.936e+15 Ubuf/Buf/Bus/Mac:5.698e+07/1.978e+09/0/1.924e+08 NoC energy = 8.979e+08 NoP energy = 0 DRAM energy = 2.715e+09  NoC(NoC_tot_hops= 140304384 NoP_tot_hops= 0,core_hops=17260544, DRAM acc=32325632) NoCtime = 1016320 NocBW = 16 DDR_access 0 1 2 3 =8130560,8065024,8065024,8065024,
			conv_3_0_b 8 (B:8,K:1,H:1,W:1) 0 util:100/100 E:2.767e+08, T:112896, Cost:3.123e+13 Ubuf/Buf/Bus/Mac:2.466e+06/1.679e+08/0/1.665e+07 NoC energy = 2.068e+07 DRAM energy = 6.898e+07  NoC(NoC_tot_hops= 3231744 NoP_tot_hops= 0,core_hops=0, DRAM acc=821248) 802816/147456/802816 NoCtime = 25664 NocBW = 16 Computing_time = 112896DDR_access 0 1 2 3 =205312,205312,205312,205312,
			conv_3_0_c 8 (B:2,K:1,H:2,W:2) 0 util:100/100 E:4.534e+08, T:101376, Cost:4.596e+13 Ubuf/Buf/Bus/Mac:4.656e+06/7.934e+07/0/7.399e+06 NoC energy = 9.156e+07 DRAM energy = 2.704e+08  NoC(NoC_tot_hops= 14306304 NoP_tot_hops= 0,core_hops=2157568, DRAM acc=3219456) 802816/65536/3211264 NoCtime = 101376 NocBW = 16 Computing_time = 50176DDR_access 0 1 2 3 =811008,802816,802816,802816,
			NoC info:(3,2) -> (4,2)	6422528 (0,2) -> (-1,2)	6422528 (2,2) -> (3,2)	5136384 (1,2) -> (0,2)	5036032 
		S 64/1 0 E:8.368e+09, T:1933312, Cost:1.618e+16 Ubuf/Buf/Bus/Mac:6.769e+07/1.491e+09/0/1.353e+08 NoC energy = 1.478e+09 NoP energy = 0 DRAM energy = 5.197e+09  NoC(NoC_tot_hops= 230883328 NoP_tot_hops= 0,core_hops=0, DRAM acc=61865984) NoCtime = 1933312 NocBW = 16 DDR_access 0 1 2 3 =15466496,15466496,15466496,15466496,
			conv_3_br 64 (B:1,K:1,H:16,W:1) 0 util:100/100 E:8.368e+09, T:1933312, Cost:1.618e+16 Ubuf/Buf/Bus/Mac:6.769e+07/1.491e+09/0/1.353e+08 NoC energy = 1.478e+09 DRAM energy = 5.197e+09  NoC(NoC_tot_hops= 230883328 NoP_tot_hops= 0,core_hops=0, DRAM acc=61865984) 49561600/131072/25690112 NoCtime = 1933312 NocBW = 16 Computing_time = 458752DDR_access 0 1 2 3 =15466496,15466496,15466496,15466496,
			NoC info:(3,2) -> (2,2)	4538368 (3,1) -> (2,1)	4538368 (4,3) -> (3,3)	4521984 (4,2) -> (3,2)	4521984 
		S 64/64 0 E:1.009e+10, T:2617344, Cost:2.641e+16 Ubuf/Buf/Bus/Mac:8.146e+07/6.33e+08/0/6.368e+07 NoC energy = 2.295e+09 NoP energy = 0 DRAM energy = 7.019e+09  NoC(NoC_tot_hops= 358612992 NoP_tot_hops= 0,core_hops=44040192, DRAM acc=83558400) NoCtime = 2617344 NocBW = 16 DDR_access 0 1 2 3 =20873216,20873216,20873216,20938752,
			conv_3_0_res 1 (B:1,K:1,H:14,W:1) 0 util:100/100 E:1.311e+08, T:37632, Cost:4.932e+12 Ubuf/Buf/Bus/Mac:6.601e+05/0/0/7.009e+04 NoC energy = 2.918e+07 DRAM energy = 1.012e+08  NoC(NoC_tot_hops= 4558848 NoP_tot_hops= 0,core_hops=0, DRAM acc=1204224) 802816/0/401408 NoCtime = 37632 NocBW = 16 Computing_time = 896DDR_access 0 1 2 3 =301056,301056,301056,301056,
			conv_3_1_a 1 (B:1,K:1,H:2,W:1) 0 util:100/100 E:2.663e+07, T:25088, Cost:6.681e+11 Ubuf/Buf/Bus/Mac:6.127e+05/9.891e+06/0/9.248e+05 NoC energy = 6.685e+06 DRAM energy = 8.516e+06  NoC(NoC_tot_hops= 1044480 NoP_tot_hops= 0,core_hops=688128, DRAM acc=101376) 401408/65536/100352 NoCtime = 5376 NocBW = 16 Computing_time = 25088DDR_access 0 1 2 3 =25088,25088,25088,26112,
			NoC info:(1,2) -> (2,2)	8716288 (3,3) -> (2,3)	7372800 (3,2) -> (2,2)	7372800 (3,1) -> (2,1)	7340032 
		S 64/8 0 E:5.982e+09, T:1016320, Cost:6.08e+15 Ubuf/Buf/Bus/Mac:6.882e+07/2.089e+09/0/1.934e+08 NoC energy = 9.156e+08 NoP energy = 0 DRAM energy = 2.715e+09  NoC(NoC_tot_hops= 143064320 NoP_tot_hops= 0,core_hops=16056320, DRAM acc=32325632) NoCtime = 1016320 NocBW = 16 DDR_access 0 1 2 3 =8130560,8065024,8065024,8065024,
			conv_3_1_b 8 (B:4,K:3,H:1,W:1) 0 util:89.58/89.58 E:3.015e+08, T:84672, Cost:2.553e+13 Ubuf/Buf/Bus/Mac:4.101e+06/1.823e+08/0/1.678e+07 NoC energy = 2.936e+07 DRAM energy = 6.898e+07  NoC(NoC_tot_hops= 4587424 NoP_tot_hops= 0,core_hops=0, DRAM acc=821248) 802816/147456/802816 NoCtime = 25664 NocBW = 16 Computing_time = 84672DDR_access 0 1 2 3 =205312,205312,205312,205312,
			conv_3_1_c 8 (B:2,K:1,H:1,W:2) 0 util:100/100 E:4.463e+08, T:101376, Cost:4.524e+13 Ubuf/Buf/Bus/Mac:4.501e+06/7.885e+07/0/7.399e+06 NoC energy = 8.509e+07 DRAM energy = 2.704e+08  NoC(NoC_tot_hops= 13295616 NoP_tot_hops= 0,core_hops=2007040, DRAM acc=3219456) 802816/65536/3211264 NoCtime = 101376 NocBW = 16 Computing_time = 100352DDR_access 0 1 2 3 =811008,802816,802816,802816,
			NoC info:(3,1) -> (4,1)	12845056 (0,1) -> (-1,1)	12845056 (2,1) -> (3,1)	9885696 (1,1) -> (0,1)	9852928 
		S 64/64 0 E:1.012e+10, T:2611200, Cost:2.644e+16 Ubuf/Buf/Bus/Mac:8.591e+07/6.547e+08/0/6.4e+07 NoC energy = 2.301e+09 NoP energy = 0 DRAM energy = 7.019e+09  NoC(NoC_tot_hops= 359563264 NoP_tot_hops= 0,core_hops=45875200, DRAM acc=83558400) NoCtime = 2611200 NocBW = 16 DDR_access 0 1 2 3 =20889600,20889600,20889600,20889600,
			conv_3_1_res 1 (B:1,K:2,H:1,W:6) 0 util:100/100 E:1.308e+08, T:37632, Cost:4.922e+12 Ubuf/Buf/Bus/Mac:6.601e+05/0/0/7.509e+04 NoC energy = 2.89e+07 DRAM energy = 1.012e+08  NoC(NoC_tot_hops= 4515840 NoP_tot_hops= 0,core_hops=0, DRAM acc=1204224) 802816/0/401408 NoCtime = 37632 NocBW = 16 Computing_time = 1120DDR_access 0 1 2 3 =301056,301056,301056,301056,
			conv_3_2_a 1 (B:1,K:1,H:1,W:4) 0 util:100/100 E:2.741e+07, T:12544, Cost:3.438e+11 Ubuf/Buf/Bus/Mac:6.822e+05/1.023e+07/0/9.248e+05 NoC energy = 7.055e+06 DRAM energy = 8.516e+06  NoC(NoC_tot_hops= 1102336 NoP_tot_hops= 0,core_hops=716800, DRAM acc=101376) 401408/65536/100352 NoCtime = 4512 NocBW = 16 Computing_time = 12544DDR_access 0 1 2 3 =25344,25344,25344,25344,
			NoC info:(3,3) -> (2,3)	8380416 (2,1) -> (1,1)	8151040 (0,0) -> (1,0)	8151040 (3,1) -> (2,1)	7692288 
		S 64/8 0 E:5.824e+09, T:1016320, Cost:5.919e+15 Ubuf/Buf/Bus/Mac:5.698e+07/1.978e+09/0/1.924e+08 NoC energy = 8.813e+08 NoP energy = 0 DRAM energy = 2.715e+09  NoC(NoC_tot_hops= 137699328 NoP_tot_hops= 0,core_hops=16056320, DRAM acc=32325632) NoCtime = 1016320 NocBW = 16 DDR_access 0 1 2 3 =8065024,8065024,8130560,8065024,
			conv_3_2_b 8 (B:8,K:1,H:1,W:1) 0 util:100/100 E:2.77e+08, T:112896, Cost:3.127e+13 Ubuf/Buf/Bus/Mac:2.466e+06/1.679e+08/0/1.665e+07 NoC energy = 2.1e+07 DRAM energy = 6.898e+07  NoC(NoC_tot_hops= 3281920 NoP_tot_hops= 0,core_hops=0, DRAM acc=821248) 802816/147456/802816 NoCtime = 25664 NocBW = 16 Computing_time = 112896DDR_access 0 1 2 3 =205312,205312,205312,205312,
			conv_3_2_c 8 (B:2,K:1,H:2,W:2) 0 util:100/100 E:4.51e+08, T:101376, Cost:4.572e+13 Ubuf/Buf/Bus/Mac:4.656e+06/7.934e+07/0/7.399e+06 NoC energy = 8.916e+07 DRAM energy = 2.704e+08  NoC(NoC_tot_hops= 13930496 NoP_tot_hops= 0,core_hops=2007040, DRAM acc=3219456) 802816/65536/3211264 NoCtime = 101376 NocBW = 16 Computing_time = 50176DDR_access 0 1 2 3 =802816,802816,811008,802816,
			NoC info:(3,1) -> (4,1)	4816896 (0,1) -> (-1,1)	4816896 (4,1) -> (4,2)	4014080 (0,1) -> (0,2)	4014080 
		S 64/64 0 E:1.016e+10, T:2611200, Cost:2.653e+16 Ubuf/Buf/Bus/Mac:8.591e+07/6.547e+08/0/6.368e+07 NoC energy = 2.336e+09 NoP energy = 0 DRAM energy = 7.019e+09  NoC(NoC_tot_hops= 365021952 NoP_tot_hops= 0,core_hops=51380224, DRAM acc=83558400) NoCtime = 2611200 NocBW = 16 DDR_access 0 1 2 3 =20889600,20889600,20889600,20889600,
			conv_3_2_res 1 (B:1,K:3,H:2,W:2) 0 util:99.94/99.94 E:1.308e+08, T:37632, Cost:4.922e+12 Ubuf/Buf/Bus/Mac:6.601e+05/0/0/7.022e+04 NoC energy = 2.89e+07 DRAM energy = 1.012e+08  NoC(NoC_tot_hops= 4516140 NoP_tot_hops= 0,core_hops=0, DRAM acc=1204224) 802816/0/401408 NoCtime = 37632 NocBW = 16 Computing_time = 1048DDR_access 0 1 2 3 =301056,301056,301056,301056,
			conv_3_3_a 1 (B:1,K:1,H:2,W:2) 0 util:100/100 E:2.795e+07, T:12544, Cost:3.506e+11 Ubuf/Buf/Bus/Mac:6.822e+05/1.023e+07/0/9.248e+05 NoC energy = 7.599e+06 DRAM energy = 8.516e+06  NoC(NoC_tot_hops= 1187328 NoP_tot_hops= 0,core_hops=802816, DRAM acc=101376) 401408/65536/100352 NoCtime = 4226 NocBW = 16 Computing_time = 12544DDR_access 0 1 2 3 =25344,25344,25344,25344,
			NoC info:(2,3) -> (3,3)	9115264 (1,2) -> (2,2)	9102336 (3,1) -> (2,1)	8043008 (3,0) -> (2,0)	8042240 
		S 64/8 0 E:6.017e+09, T:1010176, Cost:6.079e+15 Ubuf/Buf/Bus/Mac:6.882e+07/2.091e+09/0/1.934e+08 NoC energy = 9.492e+08 NoP energy = 0 DRAM energy = 2.715e+09  NoC(NoC_tot_hops= 148312640 NoP_tot_hops= 0,core_hops=17661952, DRAM acc=32325632) NoCtime = 1010176 NocBW = 16 DDR_access 0 1 2 3 =8081408,8081408,8081408,8081408,
			conv_3_3_b 8 (B:4,K:3,H:1,W:1) 0 util:89.58/89.58 E:3.018e+08, T:84672, Cost:2.555e+13 Ubuf/Buf/Bus/Mac:4.101e+06/1.823e+08/0/1.678e+07 NoC energy = 2.961e+07 DRAM energy = 6.898e+07  NoC(NoC_tot_hops= 4627016 NoP_tot_hops= 0,core_hops=0, DRAM acc=821248) 802816/147456/802816 NoCtime = 25664 NocBW = 16 Computing_time = 84672DDR_access 0 1 2 3 =205312,205312,205312,205312,
			conv_3_3_c 8 (B:1,K:1,H:1,W:4) 0 util:100/100 E:4.504e+08, T:100608, Cost:4.531e+13 Ubuf/Buf/Bus/Mac:4.501e+06/7.903e+07/0/7.399e+06 NoC energy = 8.904e+07 DRAM energy = 2.704e+08  NoC(NoC_tot_hops= 13912064 NoP_tot_hops= 0,core_hops=2207744, DRAM acc=3219456) 802816/65536/3211264 NoCtime = 100608 NocBW = 16 Computing_time = 100352DDR_access 0 1 2 3 =804864,804864,804864,804864,
			NoC info:(3,2) -> (4,2)	9633792 (0,2) -> (-1,2)	9633792 (1,2) -> (0,2)	6913504 (2,2) -> (1,2)	6850560 
		S 64/64 0 E:9.421e+09, T:2512896, Cost:2.367e+16 Ubuf/Buf/Bus/Mac:7.04e+07/3.424e+08/0/3.408e+07 NoC energy = 2.219e+09 NoP energy = 0 DRAM energy = 6.755e+09  NoC(NoC_tot_hops= 346718208 NoP_tot_hops= 0,core_hops=46891008, DRAM acc=80412672) NoCtime = 2512896 NocBW = 16 DDR_access 0 1 2 3 =20103168,20103168,20103168,20103168,
			conv_3_3_res 1 (B:1,K:2,H:1,W:7) 0 util:100/100 E:1.305e+08, T:37632, Cost:4.911e+12 Ubuf/Buf/Bus/Mac:6.601e+05/0/0/7.009e+04 NoC energy = 2.863e+07 DRAM energy = 1.012e+08  NoC(NoC_tot_hops= 4472832 NoP_tot_hops= 0,core_hops=0, DRAM acc=1204224) 802816/0/401408 NoCtime = 37632 NocBW = 16 Computing_time = 896DDR_access 0 1 2 3 =301056,301056,301056,301056,
			conv_4_0_a 1 (B:1,K:1,H:1,W:2) 0 util:100/100 E:1.668e+07, T:12544, Cost:2.093e+11 Ubuf/Buf/Bus/Mac:4.399e+05/5.35e+06/0/4.624e+05 NoC energy = 6.046e+06 DRAM energy = 4.387e+06  NoC(NoC_tot_hops= 944640 NoP_tot_hops= 0,core_hops=732672, DRAM acc=52224) 373248/131072/50176 NoCtime = 7872 NocBW = 16 Computing_time = 12544DDR_access 0 1 2 3 =13056,13056,13056,13056,
			NoC info:(2,2) -> (1,2)	8142848 (2,1) -> (1,1)	8142848 (2,0) -> (1,0)	8142848 (1,2) -> (1,3)	8060928 
		S 64/64 0 E:4.572e+09, T:786240, Cost:3.594e+15 Ubuf/Buf/Bus/Mac:1.328e+08/2.174e+09/0/2.008e+08 NoC energy = 6.442e+08 NoP energy = 0 DRAM energy = 1.42e+09  NoC(NoC_tot_hops= 100657152 NoP_tot_hops= 0,core_hops=9863168, DRAM acc=16908288) NoCtime = 608256 NocBW = 16 DDR_access 0 1 2 3 =4014080,4014080,4866048,4014080,
			conv_4_0_b 1 (B:1,K:11,H:1,W:1) 0 util:87.5/87.5 E:3.519e+07, T:12096, Cost:4.256e+11 Ubuf/Buf/Bus/Mac:1.098e+06/2.298e+07/0/2.146e+06 NoC energy = 3.974e+06 DRAM energy = 4.989e+06  NoC(NoC_tot_hops= 620960 NoP_tot_hops= 0,core_hops=0, DRAM acc=59392) 50176/589824/50176 NoCtime = 2720 NocBW = 16 Computing_time = 12096DDR_access 0 1 2 3 =12544,12544,21760,12544,
			conv_4_0_c 1 (B:1,K:1,H:1,W:5) 0 util:100/100 E:3.624e+07, T:10752, Cost:3.897e+11 Ubuf/Buf/Bus/Mac:9.761e+05/1.098e+07/0/9.909e+05 NoC energy = 6.092e+06 DRAM energy = 1.72e+07  NoC(NoC_tot_hops= 951808 NoP_tot_hops= 0,core_hops=154112, DRAM acc=204800) 50176/262144/200704 NoCtime = 6784 NocBW = 16 Computing_time = 10752DDR_access 0 1 2 3 =50176,50176,54272,50176,
			NoC info:(3,0) -> (4,0)	2752512 (0,0) -> (-1,0)	2752512 (1,2) -> (1,3)	2463744 (3,2) -> (3,3)	2461440 
		S 64/16 0 E:5.153e+09, T:950272, Cost:4.897e+15 Ubuf/Buf/Bus/Mac:1.068e+08/1.594e+09/0/1.353e+08 NoC energy = 7.625e+08 NoP energy = 0 DRAM energy = 2.554e+09  NoC(NoC_tot_hops= 119144448 NoP_tot_hops= 0,core_hops=0, DRAM acc=30408704) NoCtime = 950272 NocBW = 16 DDR_access 0 1 2 3 =7602176,7602176,7602176,7602176,
			conv_4_br 4 (B:1,K:1,H:2,W:8) 0 util:100/100 E:3.22e+08, T:59392, Cost:1.913e+13 Ubuf/Buf/Bus/Mac:6.676e+06/9.961e+07/0/8.456e+06 NoC energy = 4.766e+07 DRAM energy = 1.596e+08  NoC(NoC_tot_hops= 7446528 NoP_tot_hops= 0,core_hops=0, DRAM acc=1900544) 1492992/524288/802816 NoCtime = 59392 NocBW = 16 Computing_time = 28672DDR_access 0 1 2 3 =475136,475136,475136,475136,
			NoC info:(4,3) -> (3,3)	2195456 (4,2) -> (3,2)	2195456 (4,1) -> (3,1)	2195456 (4,0) -> (3,0)	2195456 
		S 64/64 0 E:5.639e+09, T:1312768, Cost:7.403e+15 Ubuf/Buf/Bus/Mac:1.63e+08/7.541e+08/0/6.143e+07 NoC energy = 1.132e+09 NoP energy = 0 DRAM energy = 3.529e+09  NoC(NoC_tot_hops= 176914432 NoP_tot_hops= 0,core_hops=25690112, DRAM acc=42008576) NoCtime = 1312768 NocBW = 16 DDR_access 0 1 2 3 =10502144,10502144,10502144,10502144,
			conv_4_0_res 1 (B:1,K:1,H:1,W:2) 0 util:100/100 E:6.443e+07, T:18816, Cost:1.212e+12 Ubuf/Buf/Bus/Mac:3.3e+05/0/0/3.504e+04 NoC energy = 1.349e+07 DRAM energy = 5.058e+07  NoC(NoC_tot_hops= 2107392 NoP_tot_hops= 0,core_hops=0, DRAM acc=602112) 401408/0/200704 NoCtime = 18816 NocBW = 16 Computing_time = 3136DDR_access 0 1 2 3 =150528,150528,150528,150528,
			conv_4_1_a 1 (B:1,K:1,H:7,W:2) 0 util:100/100 E:2.369e+07, T:3584, Cost:8.489e+10 Ubuf/Buf/Bus/Mac:2.216e+06/1.178e+07/0/9.248e+05 NoC energy = 4.204e+06 DRAM energy = 4.559e+06  NoC(NoC_tot_hops= 656896 NoP_tot_hops= 0,core_hops=401408, DRAM acc=54272) 200704/262144/50176 NoCtime = 3728 NocBW = 16 Computing_time = 3584DDR_access 0 1 2 3 =13568,13568,13568,13568,
			NoC info:(2,2) -> (3,2)	10240000 (1,2) -> (0,2)	10240000 (2,2) -> (1,2)	6799360 (1,2) -> (2,2)	6799360 
		S 64/4 0 E:2.327e+09, T:451584, Cost:1.051e+15 Ubuf/Buf/Bus/Mac:2.292e+07/1.366e+09/0/1.332e+08 NoC energy = 2.162e+08 NoP energy = 0 DRAM energy = 5.89e+08  NoC(NoC_tot_hops= 33783808 NoP_tot_hops= 0,core_hops=0, DRAM acc=7012352) NoCtime = 219136 NocBW = 16 DDR_access 0 1 2 3 =1753088,1753088,1753088,1753088,
			conv_4_1_b 16 (B:8,K:2,H:1,W:1) 0 util:100/100 E:5.818e+08, T:112896, Cost:6.568e+13 Ubuf/Buf/Bus/Mac:5.729e+06/3.414e+08/0/3.329e+07 NoC energy = 5.405e+07 DRAM energy = 1.473e+08  NoC(NoC_tot_hops= 8445952 NoP_tot_hops= 0,core_hops=0, DRAM acc=1753088) 802816/589824/802816 NoCtime = 54784 NocBW = 16 Computing_time = 112896DDR_access 0 1 2 3 =438272,438272,438272,438272,
			NoC info:(3,2) -> (3,1)	548864 (3,1) -> (3,2)	548864 (2,2) -> (2,1)	548864 (2,1) -> (2,2)	548864 
		S 64/64 0 E:4.113e+09, T:911360, Cost:3.748e+15 Ubuf/Buf/Bus/Mac:5.976e+07/6.319e+08/0/6.207e+07 NoC energy = 9.092e+08 NoP energy = 0 DRAM energy = 2.45e+09  NoC(NoC_tot_hops= 142065664 NoP_tot_hops= 0,core_hops=28442624, DRAM acc=29163520) NoCtime = 911360 NocBW = 16 DDR_access 0 1 2 3 =7290880,7290880,7290880,7290880,
			conv_4_1_c 1 (B:1,K:2,H:1,W:2) 0 util:100/100 E:1.764e+07, T:12544, Cost:2.213e+11 Ubuf/Buf/Bus/Mac:6.038e+05/9.873e+06/0/9.248e+05 NoC energy = 1.683e+06 DRAM energy = 4.559e+06  NoC(NoC_tot_hops= 262912 NoP_tot_hops= 0,core_hops=0, DRAM acc=54272) 50176/262144/200704 NoCtime = 1696 NocBW = 16 Computing_time = 12544DDR_access 0 1 2 3 =13568,13568,13568,13568,
			conv_4_1_res 1 (B:1,K:2,H:1,W:6) 0 util:100/100 E:4.662e+07, T:12544, Cost:5.848e+11 Ubuf/Buf/Bus/Mac:3.3e+05/0/0/4.506e+04 NoC energy = 1.252e+07 DRAM energy = 3.372e+07  NoC(NoC_tot_hops= 1956864 NoP_tot_hops= 0,core_hops=444416, DRAM acc=401408) 401408/0/200704 NoCtime = 12544 NocBW = 16 Computing_time = 672DDR_access 0 1 2 3 =100352,100352,100352,100352,
			NoC info:(0,2) -> (1,2)	3846144 (0,0) -> (1,0)	3387392 (2,0) -> (3,0)	3268608 (0,1) -> (0,2)	2932736 
		S 64/64 0 E:4.639e+09, T:786240, Cost:3.648e+15 Ubuf/Buf/Bus/Mac:1.327e+08/2.2e+09/0/2.008e+08 NoC energy = 6.857e+08 NoP energy = 0 DRAM energy = 1.42e+09  NoC(NoC_tot_hops= 107138048 NoP_tot_hops= 0,core_hops=44269568, DRAM acc=16908288) NoCtime = 608256 NocBW = 16 DDR_access 0 1 2 3 =4014080,4014080,4866048,4014080,
			conv_4_2_a 1 (B:1,K:1,H:1,W:5) 0 util:100/100 E:3.538e+07, T:10752, Cost:3.804e+11 Ubuf/Buf/Bus/Mac:9.756e+05/1.139e+07/0/9.909e+05 NoC energy = 4.817e+06 DRAM energy = 1.72e+07  NoC(NoC_tot_hops= 752640 NoP_tot_hops= 0,core_hops=0, DRAM acc=204800) 200704/262144/50176 NoCtime = 6784 NocBW = 16 Computing_time = 10752DDR_access 0 1 2 3 =50176,50176,54272,50176,
			conv_4_2_b 1 (B:1,K:11,H:1,W:1) 0 util:87.5/87.5 E:3.711e+07, T:12096, Cost:4.489e+11 Ubuf/Buf/Bus/Mac:1.098e+06/2.298e+07/0/2.146e+06 NoC energy = 5.897e+06 DRAM energy = 4.989e+06  NoC(NoC_tot_hops= 921392 NoP_tot_hops= 0,core_hops=691712, DRAM acc=59392) 50176/589824/50176 NoCtime = 3190 NocBW = 16 Computing_time = 12096DDR_access 0 1 2 3 =12544,12544,21760,12544,
			NoC info:(3,1) -> (3,2)	3528704 (2,1) -> (2,2)	3526400 (3,2) -> (3,3)	3266560 (1,2) -> (1,3)	3266560 
		S 64/64 0 E:4.115e+09, T:911360, Cost:3.75e+15 Ubuf/Buf/Bus/Mac:5.976e+07/6.319e+08/0/6.207e+07 NoC energy = 9.114e+08 NoP energy = 0 DRAM energy = 2.45e+09  NoC(NoC_tot_hops= 142409728 NoP_tot_hops= 0,core_hops=26607616, DRAM acc=29163520) NoCtime = 911360 NocBW = 16 DDR_access 0 1 2 3 =7290880,7290880,7290880,7290880,
			conv_4_2_c 1 (B:1,K:2,H:2,W:1) 0 util:100/100 E:1.804e+07, T:12544, Cost:2.263e+11 Ubuf/Buf/Bus/Mac:6.038e+05/9.873e+06/0/9.248e+05 NoC energy = 2.084e+06 DRAM energy = 4.559e+06  NoC(NoC_tot_hops= 325632 NoP_tot_hops= 0,core_hops=0, DRAM acc=54272) 50176/262144/200704 NoCtime = 1696 NocBW = 16 Computing_time = 12544DDR_access 0 1 2 3 =13568,13568,13568,13568,
			conv_4_2_res 1 (B:1,K:2,H:6,W:1) 0 util:100/100 E:4.625e+07, T:12544, Cost:5.802e+11 Ubuf/Buf/Bus/Mac:3.3e+05/0/0/4.506e+04 NoC energy = 1.216e+07 DRAM energy = 3.372e+07  NoC(NoC_tot_hops= 1899520 NoP_tot_hops= 0,core_hops=415744, DRAM acc=401408) 401408/0/200704 NoCtime = 12544 NocBW = 16 Computing_time = 672DDR_access 0 1 2 3 =100352,100352,100352,100352,
			NoC info:(2,0) -> (1,0)	3600384 (0,2) -> (0,1)	3440640 (3,3) -> (2,3)	3416064 (2,3) -> (2,2)	3301376 
		S 64/64 0 E:4.613e+09, T:786240, Cost:3.627e+15 Ubuf/Buf/Bus/Mac:1.327e+08/2.2e+09/0/2.008e+08 NoC energy = 6.596e+08 NoP energy = 0 DRAM energy = 1.42e+09  NoC(NoC_tot_hops= 103065088 NoP_tot_hops= 0,core_hops=38535168, DRAM acc=16908288) NoCtime = 575488 NocBW = 16 DDR_access 0 1 2 3 =4276224,4603904,4014080,4014080,
			conv_4_3_a 1 (B:1,K:1,H:5,W:1) 0 util:100/100 E:3.562e+07, T:10752, Cost:3.83e+11 Ubuf/Buf/Bus/Mac:9.756e+05/1.139e+07/0/9.909e+05 NoC energy = 5.059e+06 DRAM energy = 1.72e+07  NoC(NoC_tot_hops= 790528 NoP_tot_hops= 0,core_hops=0, DRAM acc=204800) 200704/262144/50176 NoCtime = 6784 NocBW = 16 Computing_time = 10752DDR_access 0 1 2 3 =54272,50176,50176,50176,
			conv_4_3_b 1 (B:1,K:11,H:1,W:1) 0 util:87.5/87.5 E:3.646e+07, T:12096, Cost:4.41e+11 Ubuf/Buf/Bus/Mac:1.098e+06/2.298e+07/0/2.146e+06 NoC energy = 5.247e+06 DRAM energy = 4.989e+06  NoC(NoC_tot_hops= 819864 NoP_tot_hops= 0,core_hops=602112, DRAM acc=59392) 50176/589824/50176 NoCtime = 2720 NocBW = 16 Computing_time = 12096DDR_access 0 1 2 3 =12544,21760,12544,12544,
			NoC info:(3,1) -> (3,2)	3014656 (3,2) -> (3,1)	2805504 (0,2) -> (0,1)	2805504 (2,2) -> (2,3)	2550784 
		S 64/64 0 E:4.103e+09, T:911296, Cost:3.739e+15 Ubuf/Buf/Bus/Mac:5.976e+07/6.319e+08/0/6.144e+07 NoC energy = 9.007e+08 NoP energy = 0 DRAM energy = 2.45e+09  NoC(NoC_tot_hops= 140728192 NoP_tot_hops= 0,core_hops=23551360, DRAM acc=29161472) NoCtime = 911296 NocBW = 16 DDR_access 0 1 2 3 =7290368,7290368,7290368,7290368,
			conv_4_3_c 1 (B:1,K:2,H:2,W:1) 0 util:100/100 E:1.804e+07, T:12544, Cost:2.263e+11 Ubuf/Buf/Bus/Mac:6.038e+05/9.873e+06/0/9.248e+05 NoC energy = 2.084e+06 DRAM energy = 4.559e+06  NoC(NoC_tot_hops= 325632 NoP_tot_hops= 0,core_hops=0, DRAM acc=54272) 50176/262144/200704 NoCtime = 1696 NocBW = 16 Computing_time = 12544DDR_access 0 1 2 3 =13568,13568,13568,13568,
			conv_4_3_res 1 (B:1,K:6,H:2,W:1) 0 util:99.94/99.94 E:4.607e+07, T:12543, Cost:5.778e+11 Ubuf/Buf/Bus/Mac:3.3e+05/0/0/3.511e+04 NoC energy = 1.199e+07 DRAM energy = 3.372e+07  NoC(NoC_tot_hops= 1873246 NoP_tot_hops= 0,core_hops=367990, DRAM acc=401376) 401408/0/200704 NoCtime = 12543 NocBW = 16 Computing_time = 524DDR_access 0 1 2 3 =100344,100344,100344,100344,
			NoC info:(0,3) -> (1,3)	4983936 (0,0) -> (1,0)	3910784 (1,2) -> (2,2)	3831808 (1,3) -> (2,3)	3829056 
		S 64/64 0 E:4.603e+09, T:786240, Cost:3.619e+15 Ubuf/Buf/Bus/Mac:1.327e+08/2.2e+09/0/2.008e+08 NoC energy = 6.487e+08 NoP energy = 0 DRAM energy = 1.42e+09  NoC(NoC_tot_hops= 101362944 NoP_tot_hops= 0,core_hops=36470784, DRAM acc=16908288) NoCtime = 608256 NocBW = 16 DDR_access 0 1 2 3 =4014080,4866048,4014080,4014080,
			conv_4_4_a 1 (B:1,K:1,H:5,W:1) 0 util:100/100 E:3.562e+07, T:10752, Cost:3.83e+11 Ubuf/Buf/Bus/Mac:9.756e+05/1.139e+07/0/9.909e+05 NoC energy = 5.059e+06 DRAM energy = 1.72e+07  NoC(NoC_tot_hops= 790528 NoP_tot_hops= 0,core_hops=0, DRAM acc=204800) 200704/262144/50176 NoCtime = 6784 NocBW = 16 Computing_time = 10752DDR_access 0 1 2 3 =50176,54272,50176,50176,
			conv_4_4_b 1 (B:1,K:11,H:1,W:1) 0 util:87.5/87.5 E:3.629e+07, T:12096, Cost:4.39e+11 Ubuf/Buf/Bus/Mac:1.098e+06/2.298e+07/0/2.146e+06 NoC energy = 5.077e+06 DRAM energy = 4.989e+06  NoC(NoC_tot_hops= 793268 NoP_tot_hops= 0,core_hops=569856, DRAM acc=59392) 50176/589824/50176 NoCtime = 2720 NocBW = 16 Computing_time = 12096DDR_access 0 1 2 3 =12544,21760,12544,12544,
			NoC info:(1,2) -> (1,1)	3014656 (1,1) -> (1,2)	2752512 (0,2) -> (0,1)	2611200 (3,2) -> (3,3)	2549632 
		S 64/64 0 E:4.138e+09, T:911296, Cost:3.771e+15 Ubuf/Buf/Bus/Mac:5.976e+07/6.319e+08/0/6.144e+07 NoC energy = 9.352e+08 NoP energy = 0 DRAM energy = 2.45e+09  NoC(NoC_tot_hops= 146125824 NoP_tot_hops= 0,core_hops=31033856, DRAM acc=29161472) NoCtime = 911296 NocBW = 16 DDR_access 0 1 2 3 =7290368,7290368,7290368,7290368,
			conv_4_4_c 1 (B:1,K:2,H:2,W:1) 0 util:100/100 E:1.784e+07, T:12544, Cost:2.237e+11 Ubuf/Buf/Bus/Mac:6.038e+05/9.873e+06/0/9.248e+05 NoC energy = 1.877e+06 DRAM energy = 4.559e+06  NoC(NoC_tot_hops= 293248 NoP_tot_hops= 0,core_hops=0, DRAM acc=54272) 50176/262144/200704 NoCtime = 1696 NocBW = 16 Computing_time = 12544DDR_access 0 1 2 3 =13568,13568,13568,13568,
			conv_4_4_res 1 (B:1,K:3,H:2,W:2) 0 util:99.94/99.94 E:4.682e+07, T:12543, Cost:5.872e+11 Ubuf/Buf/Bus/Mac:3.3e+05/0/0/3.511e+04 NoC energy = 1.274e+07 DRAM energy = 3.372e+07  NoC(NoC_tot_hops= 1989968 NoP_tot_hops= 0,core_hops=484904, DRAM acc=401376) 401408/0/200704 NoCtime = 12543 NocBW = 16 Computing_time = 524DDR_access 0 1 2 3 =100344,100344,100344,100344,
			NoC info:(0,0) -> (1,0)	4849280 (2,3) -> (1,3)	4366528 (3,2) -> (2,2)	3776768 (2,2) -> (3,2)	3296384 
		S 64/64 0 E:4.596e+09, T:786240, Cost:3.613e+15 Ubuf/Buf/Bus/Mac:1.327e+08/2.2e+09/0/2.008e+08 NoC energy = 6.419e+08 NoP energy = 0 DRAM energy = 1.42e+09  NoC(NoC_tot_hops= 100291072 NoP_tot_hops= 0,core_hops=36012032, DRAM acc=16908288) NoCtime = 575488 NocBW = 16 DDR_access 0 1 2 3 =4014080,4603904,4276224,4014080,
			conv_4_5_a 1 (B:1,K:1,H:1,W:5) 0 util:100/100 E:3.562e+07, T:10752, Cost:3.829e+11 Ubuf/Buf/Bus/Mac:9.756e+05/1.139e+07/0/9.909e+05 NoC energy = 5.053e+06 DRAM energy = 1.72e+07  NoC(NoC_tot_hops= 789504 NoP_tot_hops= 0,core_hops=0, DRAM acc=204800) 200704/262144/50176 NoCtime = 6784 NocBW = 16 Computing_time = 10752DDR_access 0 1 2 3 =50176,50176,54272,50176,
			conv_4_5_b 1 (B:1,K:11,H:1,W:1) 0 util:87.5/87.5 E:3.619e+07, T:12096, Cost:4.378e+11 Ubuf/Buf/Bus/Mac:1.098e+06/2.298e+07/0/2.146e+06 NoC energy = 4.976e+06 DRAM energy = 4.989e+06  NoC(NoC_tot_hops= 777544 NoP_tot_hops= 0,core_hops=562688, DRAM acc=59392) 50176/589824/50176 NoCtime = 2720 NocBW = 16 Computing_time = 12096DDR_access 0 1 2 3 =12544,21760,12544,12544,
			NoC info:(3,1) -> (3,2)	3014656 (2,2) -> (2,1)	2805504 (2,2) -> (2,3)	2549632 (1,2) -> (1,3)	2549632 
		S 64/64 0 E:5.049e+09, T:977920, Cost:4.938e+15 Ubuf/Buf/Bus/Mac:1.115e+08/1.085e+09/0/9.526e+07 NoC energy = 1.128e+09 NoP energy = 0 DRAM energy = 2.629e+09  NoC(NoC_tot_hops= 176275456 NoP_tot_hops= 0,core_hops=49020928, DRAM acc=31293440) NoCtime = 977920 NocBW = 16 DDR_access 0 1 2 3 =7823360,7823360,7823360,7823360,
			conv_4_5_c 1 (B:1,K:2,H:2,W:1) 0 util:100/100 E:1.804e+07, T:12544, Cost:2.263e+11 Ubuf/Buf/Bus/Mac:6.038e+05/9.873e+06/0/9.248e+05 NoC energy = 2.081e+06 DRAM energy = 4.559e+06  NoC(NoC_tot_hops= 325120 NoP_tot_hops= 0,core_hops=0, DRAM acc=54272) 50176/262144/200704 NoCtime = 1696 NocBW = 16 Computing_time = 12544DDR_access 0 1 2 3 =13568,13568,13568,13568,
			conv_4_5_res 1 (B:1,K:2,H:2,W:2) 0 util:100/100 E:4.629e+07, T:12544, Cost:5.806e+11 Ubuf/Buf/Bus/Mac:3.3e+05/0/0/3.504e+04 NoC energy = 1.22e+07 DRAM energy = 3.372e+07  NoC(NoC_tot_hops= 1906688 NoP_tot_hops= 0,core_hops=376320, DRAM acc=401408) 401408/0/200704 NoCtime = 12544 NocBW = 16 Computing_time = 784DDR_access 0 1 2 3 =100352,100352,100352,100352,
			conv_5_0_a 1 (B:1,K:2,H:2,W:1) 0 util:100/100 E:1.456e+07, T:7168, Cost:1.044e+11 Ubuf/Buf/Bus/Mac:8.091e+05/7.086e+06/0/5.285e+05 NoC energy = 3.344e+06 DRAM energy = 2.796e+06  NoC(NoC_tot_hops= 522496 NoP_tot_hops= 0,core_hops=389632, DRAM acc=33280) 173056/524288/25088 NoCtime = 3168 NocBW = 16 Computing_time = 7168DDR_access 0 1 2 3 =8320,8320,8320,8320,
			NoC info:(0,3) -> (1,3)	5115904 (3,2) -> (3,1)	4816896 (1,2) -> (2,2)	4726784 (1,0) -> (0,0)	4677632 
		S 64/16 0 E:3.796e+09, T:719712, Cost:2.732e+15 Ubuf/Buf/Bus/Mac:7.625e+07/2.137e+09/0/1.937e+08 NoC energy = 4.285e+08 NoP energy = 0 DRAM energy = 9.606e+08  NoC(NoC_tot_hops= 66960896 NoP_tot_hops= 0,core_hops=9339008, DRAM acc=11436032) NoCtime = 578560 NocBW = 16 DDR_access 0 1 2 3 =4628480,2269184,2269184,2269184,
			conv_5_0_b 4 (B:1,K:11,H:1,W:1) 0 util:97.92/97.92 E:1.382e+08, T:42336, Cost:5.852e+12 Ubuf/Buf/Bus/Mac:3.204e+06/9.38e+07/0/8.405e+06 NoC energy = 1.199e+07 DRAM energy = 2.082e+07  NoC(NoC_tot_hops= 1873696 NoP_tot_hops= 0,core_hops=0, DRAM acc=247808) 100352/2359296/100352 NoCtime = 21568 NocBW = 16 Computing_time = 42336DDR_access 0 1 2 3 =172544,25088,25088,25088,
			conv_5_0_c 4 (B:1,K:5,H:1,W:1) 0 util:98.56/98.56 E:9.902e+07, T:40768, Cost:4.037e+12 Ubuf/Buf/Bus/Mac:1.562e+06/3.974e+07/0/3.703e+06 NoC energy = 1.479e+07 DRAM energy = 3.922e+07  NoC(NoC_tot_hops= 2311360 NoP_tot_hops= 0,core_hops=583688, DRAM acc=466944) 100352/1048576/401408 NoCtime = 14592 NocBW = 16 Computing_time = 40768DDR_access 0 1 2 3 =116736,116736,116736,116736,
			NoC info:(2,1) -> (2,2)	1999296 (0,3) -> (1,3)	1511424 (0,0) -> (1,0)	1511424 (2,2) -> (3,2)	1484896 
		S 64/32 0 E:4.151e+09, T:532480, Cost:2.21e+15 Ubuf/Buf/Bus/Mac:1.865e+08/1.824e+09/0/1.353e+08 NoC energy = 5.734e+08 NoP energy = 0 DRAM energy = 1.431e+09  NoC(NoC_tot_hops= 89587712 NoP_tot_hops= 0,core_hops=0, DRAM acc=17039360) NoCtime = 532480 NocBW = 16 DDR_access 0 1 2 3 =4259840,4259840,4259840,4259840,
			conv_5_br 2 (B:1,K:4,H:4,W:1) 0 util:100/100 E:1.297e+08, T:16640, Cost:2.158e+12 Ubuf/Buf/Bus/Mac:5.828e+06/5.701e+07/0/4.228e+06 NoC energy = 1.792e+07 DRAM energy = 4.473e+07  NoC(NoC_tot_hops= 2799616 NoP_tot_hops= 0,core_hops=0, DRAM acc=532480) 346112/2097152/200704 NoCtime = 16640 NocBW = 16 Computing_time = 14336DDR_access 0 1 2 3 =133120,133120,133120,133120,
			NoC info:(2,2) -> (2,3)	2310144 (2,1) -> (2,0)	2310144 (1,2) -> (1,3)	2310144 (1,1) -> (1,0)	2310144 
		S 64/64 0 E:5.895e+09, T:827904, Cost:4.88e+15 Ubuf/Buf/Bus/Mac:2.023e+08/2.482e+09/0/1.948e+08 NoC energy = 9.761e+08 NoP energy = 0 DRAM energy = 2.039e+09  NoC(NoC_tot_hops= 152508544 NoP_tot_hops= 0,core_hops=66232320, DRAM acc=24279296) NoCtime = 758728 NocBW = 16 DDR_access 0 1 2 3 =6069824,6069824,6069824,6069824,
			conv_5_0_res 1 (B:1,K:1,H:1,W:1) 0 util:100/100 E:3.221e+07, T:9408, Cost:3.031e+11 Ubuf/Buf/Bus/Mac:1.65e+05/0/0/1.752e+04 NoC energy = 6.744e+06 DRAM energy = 2.529e+07  NoC(NoC_tot_hops= 1053696 NoP_tot_hops= 0,core_hops=0, DRAM acc=301056) 200704/0/100352 NoCtime = 9408 NocBW = 16 Computing_time = 3136DDR_access 0 1 2 3 =75264,75264,75264,75264,
			conv_5_1_a 1 (B:1,K:4,H:1,W:1) 0 util:100/100 E:1.963e+07, T:12544, Cost:2.463e+11 Ubuf/Buf/Bus/Mac:1.017e+06/1.141e+07/0/9.248e+05 NoC energy = 4.902e+06 DRAM energy = 1.376e+06  NoC(NoC_tot_hops= 765952 NoP_tot_hops= 0,core_hops=702464, DRAM acc=16384) 100352/1048576/25088 NoCtime = 6464 NocBW = 16 Computing_time = 12544DDR_access 0 1 2 3 =4096,4096,4096,4096,
			conv_5_1_b 1 (B:1,K:11,H:1,W:1) 0 util:85.68/85.68 E:4.026e+07, T:12096, Cost:4.87e+11 Ubuf/Buf/Bus/Mac:1.979e+06/2.737e+07/0/2.101e+06 NoC energy = 3.605e+06 DRAM energy = 5.202e+06  NoC(NoC_tot_hops= 563298 NoP_tot_hops= 0,core_hops=332416, DRAM acc=61924) 25088/2359296/25088 NoCtime = 1936 NocBW = 16 Computing_time = 12096DDR_access 0 1 2 3 =15481,15481,15481,15481,
			NoC info:(2,1) -> (3,1)	10220672 (2,1) -> (1,1)	9939328 (1,1) -> (0,1)	9899136 (0,1) -> (0,2)	7866112 
		S 64/64 0 E:4.114e+09, T:569184, Cost:2.341e+15 Ubuf/Buf/Bus/Mac:1.663e+08/1.498e+09/0/1.281e+08 NoC energy = 7.964e+08 NoP energy = 0 DRAM energy = 1.525e+09  NoC(NoC_tot_hops= 124445248 NoP_tot_hops= 0,core_hops=44960832, DRAM acc=18153472) NoCtime = 567296 NocBW = 16 DDR_access 0 1 2 3 =4538368,4538368,4538368,4538368,
			conv_5_1_c 1 (B:1,K:6,H:1,W:1) 0 util:97.16/97.16 E:1.774e+07, T:8624, Cost:1.53e+11 Ubuf/Buf/Bus/Mac:8.284e+05/1.03e+07/0/9.267e+05 NoC energy = 2.208e+06 DRAM energy = 3.484e+06  NoC(NoC_tot_hops= 345048 NoP_tot_hops= 0,core_hops=0, DRAM acc=41472) 25088/1048576/100352 NoCtime = 1305 NocBW = 16 Computing_time = 8624DDR_access 0 1 2 3 =10368,10368,10368,10368,
			conv_5_1_res 1 (B:1,K:2,H:1,W:1) 0 util:100/100 E:2.25e+07, T:6272, Cost:1.411e+11 Ubuf/Buf/Bus/Mac:1.65e+05/0/0/1.752e+04 NoC energy = 5.459e+06 DRAM energy = 1.686e+07  NoC(NoC_tot_hops= 853041 NoP_tot_hops= 0,core_hops=150577, DRAM acc=200704) 200704/0/100352 NoCtime = 6272 NocBW = 16 Computing_time = 1568DDR_access 0 1 2 3 =50176,50176,50176,50176,
			conv_5_2_a 1 (B:1,K:4,H:2,W:1) 0 util:100/100 E:2.403e+07, T:7168, Cost:1.723e+11 Ubuf/Buf/Bus/Mac:1.605e+06/1.311e+07/0/1.057e+06 NoC energy = 4.777e+06 DRAM energy = 3.484e+06  NoC(NoC_tot_hops= 746368 NoP_tot_hops= 0,core_hops=551936, DRAM acc=41472) 100352/1048576/25088 NoCtime = 3776 NocBW = 16 Computing_time = 7168DDR_access 0 1 2 3 =10368,10368,10368,10368,
			NoC info:(2,1) -> (1,1)	5300224 (2,2) -> (1,2)	5214208 (2,3) -> (2,2)	4192704 (2,0) -> (2,1)	4192576 
		S 64/64 0 E:3.921e+09, T:945504, Cost:3.707e+15 Ubuf/Buf/Bus/Mac:1.594e+08/2.119e+09/0/1.94e+08 NoC energy = 4.769e+08 NoP energy = 0 DRAM energy = 9.716e+08  NoC(NoC_tot_hops= 74514432 NoP_tot_hops= 0,core_hops=27295744, DRAM acc=11567104) NoCtime = 562176 NocBW = 16 DDR_access 0 1 2 3 =2007040,3055616,4497408,2007040,
			conv_5_2_b 1 (B:1,K:8,H:1,W:1) 0 util:100/100 E:3.393e+07, T:14112, Cost:4.788e+11 Ubuf/Buf/Bus/Mac:1.495e+06/2.306e+07/0/2.081e+06 NoC energy = 2.094e+06 DRAM energy = 5.204e+06  NoC(NoC_tot_hops= 327168 NoP_tot_hops= 0,core_hops=0, DRAM acc=61952) 25088/2359296/25088 NoCtime = 5392 NocBW = 16 Computing_time = 14112DDR_access 0 1 2 3 =6272,6272,43136,6272,
			conv_5_2_c 1 (B:1,K:4,H:1,W:1) 0 util:100/100 E:1.456e+07, T:12544, Cost:1.827e+11 Ubuf/Buf/Bus/Mac:7.729e+05/1.005e+07/0/9.248e+05 NoC energy = 1.439e+06 DRAM energy = 1.376e+06  NoC(NoC_tot_hops= 224768 NoP_tot_hops= 0,core_hops=175616, DRAM acc=16384) 25088/1048576/100352 NoCtime = 2048 NocBW = 16 Computing_time = 12544DDR_access 0 1 2 3 =0,16384,0,0,
			conv_5_2_res 1 (B:1,K:2,H:1,W:1) 0 util:100/100 E:1.182e+07, T:3136, Cost:3.708e+10 Ubuf/Buf/Bus/Mac:1.65e+05/0/0/1.752e+04 NoC energy = 3.211e+06 DRAM energy = 8.43e+06  NoC(NoC_tot_hops= 501760 NoP_tot_hops= 0,core_hops=150528, DRAM acc=100352) 200704/0/100352 NoCtime = 3136 NocBW = 16 Computing_time = 1568DDR_access 0 1 2 3 =25088,25088,25088,25088,
			pool5 1 (B:1,K:2,H:1,W:1) 0 util:100/100 E:9.46e+05, T:784, Cost:7.417e+08 Ubuf/Buf/Bus/Mac:5.743e+04/0/0/8761 NoC energy = 7.078e+05 DRAM energy = 1.72e+05  NoC(NoC_tot_hops= 110592 NoP_tot_hops= 0,core_hops=100352, DRAM acc=2048) 100352/0/2048 NoCtime = 3136 NocBW = 16 Computing_time = 784DDR_access 0 1 2 3 =0,0,2048,0,
			NoC info:(1,2) -> (0,2)	4014080 (1,1) -> (1,2)	4014080 (0,2) -> (0,1)	3211264 (0,1) -> (0,0)	3211264 
		S 64/1 0 E:3.31e+08, T:70096, Cost:2.32e+13 Ubuf/Buf/Bus/Mac:4.566e+06/7.151e+07/0/2.378e+06 NoC energy = 6.41e+07 NoP energy = 0 DRAM energy = 1.884e+08  NoC(NoC_tot_hops= 10015040 NoP_tot_hops= 0,core_hops=0, DRAM acc=2243072) NoCtime = 70096 NocBW = 16 DDR_access 0 1 2 3 =560768,560768,560768,560768,
			fc 64 (B:1,K:16,H:1,W:1) 0 util:98.44/98.44 E:3.31e+08, T:70096, Cost:2.32e+13 Ubuf/Buf/Bus/Mac:4.566e+06/7.151e+07/0/2.378e+06 NoC energy = 6.41e+07 DRAM energy = 1.884e+08  NoC(NoC_tot_hops= 10015040 NoP_tot_hops= 0,core_hops=0, DRAM acc=2243072) 131072/2048000/64000 NoCtime = 70096 NocBW = 16 Computing_time = 8192DDR_access 0 1 2 3 =560768,560768,560768,560768,
			NoC info:(4,3) -> (3,3)	272384 (4,2) -> (3,2)	272384 (4,1) -> (3,1)	272384 (4,0) -> (3,0)	272384 

Cost (after SPM search): 
E:2.659e+11, T:60298326, Cost:1.604e+19


pipeline1:
3,0,0,12
3,1,0,13
3,2,0,14
3,3,0,15
2,0,0,8
2,1,0,9
2,2,0,10
2,3,0,11
1,0,0,4
1,1,0,5
1,2,0,6
1,3,0,7
0,0,0,0
0,1,0,1
0,2,0,2
0,3,0,3
pipeline2:
3,0,1,12
3,1,1,13
3,2,1,14
3,3,1,15
2,0,1,8
2,1,1,9
2,2,1,10
2,3,1,11
1,0,1,4
1,1,1,5
1,2,1,6
1,3,1,7
0,0,1,0
0,1,1,1
0,2,1,2
0,3,1,3
pipeline3:
3,0,5,1
3,1,3,0
3,2,5,10
3,3,5,9
2,0,4,0
2,1,2,0
2,2,5,5
2,3,5,2
1,0,5,0
1,1,3,1
1,2,5,6
1,3,5,8
0,0,5,11
0,1,5,4
0,2,5,3
0,3,5,7
pipeline4:
3,0,6,1
3,1,6,5
3,2,6,9
3,3,6,7
2,0,6,6
2,1,6,14
2,2,6,10
2,3,6,11
1,0,6,13
1,1,6,0
1,2,6,12
1,3,6,2
0,0,6,15
0,1,6,3
0,2,6,4
0,3,6,8
pipeline5:
3,0,8,3
3,1,9,1
3,2,8,2
3,3,9,3
2,0,9,0
2,1,7,3
2,2,9,2
2,3,9,7
1,0,7,1
1,1,9,5
1,2,7,2
1,3,9,4
0,0,9,6
0,1,8,1
0,2,8,0
0,3,7,0
pipeline6:
3,0,10,7
3,1,10,13
3,2,10,1
3,3,10,11
2,0,10,10
2,1,10,2
2,2,10,6
2,3,10,4
1,0,10,9
1,1,10,14
1,2,10,12
1,3,10,3
0,0,10,8
0,1,10,0
0,2,10,15
0,3,10,5
pipeline7:
3,0,13,5
3,1,12,2
3,2,13,4
3,3,13,3
2,0,13,1
2,1,13,7
2,2,12,3
2,3,13,6
1,0,11,2
1,1,11,3
1,2,13,0
1,3,11,1
0,0,11,0
0,1,12,0
0,2,12,1
0,3,13,2
pipeline8:
3,0,15,4
3,1,14,10
3,2,14,3
3,3,15,0
2,0,15,1
2,1,14,4
2,2,14,0
2,3,14,1
1,0,14,9
1,1,14,5
1,2,14,8
1,3,14,7
0,0,14,6
0,1,15,2
0,2,14,2
0,3,15,3
pipeline9:
3,0,17,0
3,1,16,5
3,2,17,7
3,3,16,0
2,0,17,2
2,1,17,4
2,2,17,6
2,3,17,1
1,0,16,7
1,1,16,2
1,2,16,4
1,3,16,3
0,0,16,6
0,1,17,5
0,2,17,3
0,3,16,1
pipeline10:
3,0,18,3
3,1,18,6
3,2,18,9
3,3,18,11
2,0,18,5
2,1,18,0
2,2,18,12
2,3,18,10
1,0,18,14
1,1,18,4
1,2,18,1
1,3,18,13
0,0,18,8
0,1,18,15
0,2,18,2
0,3,18,7
pipeline11:
3,0,19,4
3,1,19,6
3,2,19,11
3,3,19,9
2,0,19,8
2,1,19,10
2,2,20,1
2,3,19,13
1,0,19,2
1,1,20,0
1,2,19,1
1,3,19,12
0,0,19,3
0,1,19,0
0,2,19,5
0,3,19,7
pipeline12:
3,0,21,0
3,1,21,11
3,2,21,3
3,3,21,9
2,0,21,7
2,1,21,5
2,2,21,4
2,3,21,8
1,0,22,3
1,1,22,1
1,2,22,0
1,3,22,2
0,0,21,2
0,1,21,1
0,2,21,6
0,3,21,10
pipeline13:
3,0,23,1
3,1,23,2
3,2,24,0
3,3,23,6
2,0,24,1
2,1,23,0
2,2,23,5
2,3,24,3
1,0,23,7
1,1,23,4
1,2,23,10
1,3,23,8
0,0,23,3
0,1,24,2
0,2,23,9
0,3,23,11
pipeline14:
3,0,25,6
3,1,25,2
3,2,26,3
3,3,25,3
2,0,25,1
2,1,26,1
2,2,26,4
2,3,25,7
1,0,26,5
1,1,26,0
1,2,25,5
1,3,26,2
0,0,25,4
0,1,26,7
0,2,25,0
0,3,26,6
pipeline15:
3,0,27,1
3,1,27,8
3,2,27,5
3,3,28,1
2,0,27,2
2,1,27,9
2,2,28,3
2,3,27,11
1,0,27,0
1,1,27,10
1,2,28,2
1,3,27,7
0,0,27,4
0,1,28,0
0,2,27,3
0,3,27,6
pipeline16:
3,0,30,3
3,1,29,11
3,2,29,7
3,3,29,3
2,0,30,2
2,1,29,9
2,2,30,1
2,3,30,0
1,0,29,8
1,1,29,5
1,2,29,4
1,3,29,6
0,0,29,10
0,1,29,0
0,2,29,1
0,3,29,2
pipeline17:
3,0,31,7
3,1,32,0
3,2,31,8
3,3,31,13
2,0,31,0
2,1,31,3
2,2,31,9
2,3,31,2
1,0,31,10
1,1,31,1
1,2,31,5
1,3,31,4
0,0,31,6
0,1,32,1
0,2,31,11
0,3,31,12
pipeline18:
3,0,34,0
3,1,33,3
3,2,33,4
3,3,33,10
2,0,34,4
2,1,33,6
2,2,33,1
2,3,33,5
1,0,34,3
1,1,33,8
1,2,33,7
1,3,33,0
0,0,34,1
0,1,33,9
0,2,33,2
0,3,34,2
pipeline19:
3,0,35,6
3,1,35,15
3,2,35,13
3,3,35,9
2,0,35,4
2,1,35,8
2,2,35,1
2,3,35,10
1,0,35,5
1,1,35,14
1,2,35,2
1,3,35,0
0,0,35,11
0,1,35,7
0,2,35,12
0,3,35,3
pipeline20:
3,0,37,12
3,1,37,11
3,2,37,7
3,3,37,9
2,0,37,3
2,1,36,0
2,2,36,1
2,3,37,13
1,0,37,4
1,1,37,2
1,2,37,5
1,3,37,0
0,0,37,8
0,1,37,6
0,2,37,1
0,3,37,10
pipeline21:
3,0,38,9
3,1,38,11
3,2,38,13
3,3,38,15
2,0,38,1
2,1,38,3
2,2,38,5
2,3,38,7
1,0,38,8
1,1,38,10
1,2,38,12
1,3,38,14
0,0,38,0
0,1,38,2
0,2,38,4
0,3,38,6
pipeline22:
3,0,40,9
3,1,40,6
3,2,40,0
3,3,40,7
2,0,39,0
2,1,40,11
2,2,39,2
2,3,40,8
1,0,40,2
1,1,40,5
1,2,40,4
1,3,40,3
0,0,39,3
0,1,40,1
0,2,39,1
0,3,40,10
pipeline23:
3,0,42,5
3,1,42,3
3,2,42,9
3,3,42,7
2,0,42,1
2,1,42,6
2,2,41,1
2,3,41,3
1,0,42,4
1,1,41,4
1,2,42,0
1,3,41,0
0,0,42,10
0,1,41,2
0,2,42,8
0,3,42,2
pipeline24:
3,0,44,4
3,1,44,7
3,2,43,3
3,3,43,0
2,0,43,1
2,1,44,5
2,2,44,10
2,3,44,11
1,0,44,3
1,1,44,2
1,2,44,9
1,3,44,0
0,0,44,1
0,1,44,8
0,2,43,2
0,3,44,6
pipeline25:
3,0,46,5
3,1,46,6
3,2,46,0
3,3,45,1
2,0,46,10
2,1,46,8
2,2,46,9
2,3,45,3
1,0,46,4
1,1,46,1
1,2,46,7
1,3,45,2
0,0,45,0
0,1,46,3
0,2,45,4
0,3,46,2
pipeline26:
3,0,47,0
3,1,48,2
3,2,48,9
3,3,48,7
2,0,48,11
2,1,47,3
2,2,48,4
2,3,48,8
1,0,48,3
1,1,48,5
1,2,48,6
1,3,47,2
0,0,47,1
0,1,48,1
0,2,48,0
0,3,48,10
pipeline27:
3,0,50,2
3,1,49,3
3,2,50,5
3,3,50,4
2,0,50,8
2,1,49,1
2,2,50,7
2,3,50,1
1,0,50,3
1,1,49,2
1,2,50,9
1,3,50,10
0,0,49,4
0,1,49,0
0,2,50,0
0,3,50,6
pipeline28:
3,0,52,6
3,1,52,8
3,2,51,1
3,3,52,7
2,0,52,2
2,1,52,3
2,2,51,3
2,3,51,0
1,0,52,10
1,1,52,9
1,2,52,0
1,3,52,1
0,0,51,2
0,1,52,4
0,2,52,5
0,3,52,11
pipeline29:
3,0,54,4
3,1,54,2
3,2,54,6
3,3,53,1
2,0,54,7
2,1,54,3
2,2,54,5
2,3,53,0
1,0,54,0
1,1,54,9
1,2,54,8
1,3,53,4
0,0,54,1
0,1,54,10
0,2,53,2
0,3,53,3
pipeline30:
3,0,55,3
3,1,56,6
3,2,56,0
3,3,55,2
2,0,57,0
2,1,55,0
2,2,57,2
2,3,56,1
1,0,57,1
1,1,56,7
1,2,57,3
1,3,56,4
0,0,56,2
0,1,55,1
0,2,56,3
0,3,56,5
pipeline31:
3,0,58,8
3,1,59,0
3,2,58,9
3,3,58,3
2,0,58,5
2,1,59,2
2,2,59,1
2,3,58,10
1,0,58,4
1,1,58,7
1,2,59,3
1,3,58,1
0,0,58,6
0,1,58,2
0,2,59,4
0,3,58,0
pipeline32:
3,0,60,5
3,1,60,3
3,2,60,14
3,3,60,12
2,0,60,13
2,1,60,0
2,2,60,4
2,3,60,8
1,0,60,6
1,1,60,2
1,2,60,10
1,3,60,1
0,0,60,9
0,1,60,15
0,2,60,11
0,3,60,7
pipeline33:
3,0,62,2
3,1,63,8
3,2,63,9
3,3,63,7
2,0,63,3
2,1,63,2
2,2,63,10
2,3,63,6
1,0,62,1
1,1,63,4
1,2,61,0
1,3,63,5
0,0,63,0
0,1,62,0
0,2,63,1
0,3,62,3
pipeline34:
3,0,64,0
3,1,66,1
3,2,64,2
3,3,66,0
2,0,66,6
2,1,66,7
2,2,65,0
2,3,64,1
1,0,66,2
1,1,64,5
1,2,65,1
1,3,66,5
0,0,66,4
0,1,64,4
0,2,64,3
0,3,66,3
pipeline35:
3,0,68,0
3,1,68,3
3,2,67,4
3,3,67,2
2,0,70,1
2,1,69,1
2,2,67,0
2,3,67,6
1,0,69,0
1,1,68,1
1,2,67,7
1,3,67,3
0,0,70,0
0,1,68,2
0,2,67,5
0,3,67,1
pipeline36:
3,0,71,13
3,1,71,3
3,2,71,7
3,3,71,9
2,0,71,8
2,1,71,15
2,2,71,0
2,3,71,11
1,0,71,14
1,1,71,12
1,2,71,2
1,3,71,4
0,0,71,1
0,1,71,6
0,2,71,10
0,3,71,5